A Gromacs structure file written by ASE 
  653
    11DUM    Si    1   2.305   0.305   0.089  0.0000  0.0000  0.0000
    11DUM    Si    2   2.305   1.522   1.306  0.0000  0.0000  0.0000
    11DUM    Si    3   1.088   1.522   0.089  0.0000  0.0000  0.0000
    11DUM    Si    4   1.088   0.305   1.306  0.0000  0.0000  0.0000
    11DUM    Si    5   0.089   2.305   0.305  0.0000  0.0000  0.0000
    11DUM    Si    6   0.089   1.088   1.522  0.0000  0.0000  0.0000
    11DUM    Si    7   1.306   1.088   0.305  0.0000  0.0000  0.0000
    11DUM    Si    8   1.306   2.305   1.522  0.0000  0.0000  0.0000
    11DUM    Si    9   0.305   0.089   2.305  0.0000  0.0000  0.0000
    11DUM    Si   10   0.305   1.306   1.088  0.0000  0.0000  0.0000
    11DUM    Si   11   1.522   1.306   2.305  0.0000  0.0000  0.0000
    11DUM    Si   12   1.522   0.089   1.088  0.0000  0.0000  0.0000
    11DUM    Si   13   0.129   0.913   0.697  0.0000  0.0000  0.0000
    11DUM    Si   14   0.129   2.130   1.914  0.0000  0.0000  0.0000
    11DUM    Si   15   1.347   2.130   0.697  0.0000  0.0000  0.0000
    11DUM    Si   16   1.347   0.913   1.914  0.0000  0.0000  0.0000
    11DUM    Si   17   2.346   0.479   0.913  0.0000  0.0000  0.0000
    11DUM    Si   18   2.346   1.697   2.130  0.0000  0.0000  0.0000
    11DUM    Si   19   1.129   1.697   0.913  0.0000  0.0000  0.0000
    11DUM    Si   20   1.129   0.479   2.130  0.0000  0.0000  0.0000
    11DUM    Si   21   2.130   0.697   0.479  0.0000  0.0000  0.0000
    11DUM    Si   22   2.130   1.914   1.697  0.0000  0.0000  0.0000
    11DUM    Si   23   0.913   1.914   0.479  0.0000  0.0000  0.0000
    11DUM    Si   24   0.913   0.697   1.697  0.0000  0.0000  0.0000
    11DUM    Si   25   0.479   2.130   0.697  0.0000  0.0000  0.0000
    11DUM    Si   26   0.479   0.913   1.914  0.0000  0.0000  0.0000
    11DUM    Si   27   1.697   0.913   0.697  0.0000  0.0000  0.0000
    11DUM    Si   28   1.697   2.130   1.914  0.0000  0.0000  0.0000
    11DUM    Si   29   0.697   0.129   0.913  0.0000  0.0000  0.0000
    11DUM    Si   30   0.697   1.347   2.130  0.0000  0.0000  0.0000
    11DUM    Si   31   1.914   1.347   0.913  0.0000  0.0000  0.0000
    11DUM    Si   32   1.914   0.129   2.130  0.0000  0.0000  0.0000
    11DUM    Si   33   0.913   2.346   0.479  0.0000  0.0000  0.0000
    11DUM    Si   34   0.913   1.129   1.697  0.0000  0.0000  0.0000
    11DUM    Si   35   2.130   1.129   0.479  0.0000  0.0000  0.0000
    11DUM    Si   36   2.130   2.346   1.697  0.0000  0.0000  0.0000
    11DUM    Si   37   0.738   1.521   1.306  0.0000  0.0000  0.0000
    11DUM    Si   38   0.738   0.304   0.089  0.0000  0.0000  0.0000
    11DUM    Si   39   1.955   0.304   1.306  0.0000  0.0000  0.0000
    11DUM    Si   40   1.955   1.521   0.089  0.0000  0.0000  0.0000
    11DUM    Si   41   0.520   1.955   1.522  0.0000  0.0000  0.0000
    11DUM    Si   42   0.520   0.738   0.305  0.0000  0.0000  0.0000
    11DUM    Si   43   1.737   0.738   1.522  0.0000  0.0000  0.0000
    11DUM    Si   44   1.737   1.955   0.305  0.0000  0.0000  0.0000
    11DUM    Si   45   0.304   1.737   1.088  0.0000  0.0000  0.0000
    11DUM    Si   46   0.304   0.520   2.305  0.0000  0.0000  0.0000
    11DUM    Si   47   1.521   0.520   1.088  0.0000  0.0000  0.0000
    11DUM    Si   48   1.521   1.737   2.305  0.0000  0.0000  0.0000
    11DUM    Al   49   0.305   2.305   0.089  0.0000  0.0000  0.0000
    11DUM    Al   50   0.305   1.088   1.306  0.0000  0.0000  0.0000
    11DUM    Al   51   1.522   1.088   0.089  0.0000  0.0000  0.0000
    11DUM    Al   52   1.522   2.305   1.306  0.0000  0.0000  0.0000
    11DUM    Al   53   2.305   0.089   0.305  0.0000  0.0000  0.0000
    11DUM    Al   54   2.305   1.306   1.522  0.0000  0.0000  0.0000
    11DUM    Al   55   1.088   1.306   0.305  0.0000  0.0000  0.0000
    11DUM    Al   56   1.088   0.089   1.522  0.0000  0.0000  0.0000
    11DUM    Al   57   0.089   0.305   2.305  0.0000  0.0000  0.0000
    11DUM    Al   58   0.089   1.522   1.088  0.0000  0.0000  0.0000
    11DUM    Al   59   1.306   1.522   2.305  0.0000  0.0000  0.0000
    11DUM    Al   60   1.306   0.305   1.088  0.0000  0.0000  0.0000
    11DUM    Al   61   0.913   0.129   0.697  0.0000  0.0000  0.0000
    11DUM    Al   62   0.913   1.347   1.914  0.0000  0.0000  0.0000
    11DUM    Al   63   2.130   1.347   0.697  0.0000  0.0000  0.0000
    11DUM    Al   64   2.130   0.129   1.914  0.0000  0.0000  0.0000
    11DUM    Al   65   0.479   2.346   0.913  0.0000  0.0000  0.0000
    11DUM    Al   66   0.479   1.129   2.130  0.0000  0.0000  0.0000
    11DUM    Al   67   1.697   1.129   0.913  0.0000  0.0000  0.0000
    11DUM    Al   68   1.697   2.346   2.130  0.0000  0.0000  0.0000
    11DUM    Al   69   0.697   2.130   0.479  0.0000  0.0000  0.0000
    11DUM    Al   70   0.697   0.913   1.697  0.0000  0.0000  0.0000
    11DUM    Al   71   1.914   0.913   0.479  0.0000  0.0000  0.0000
    11DUM    Al   72   1.914   2.130   1.697  0.0000  0.0000  0.0000
    11DUM    Al   73   2.130   0.479   0.697  0.0000  0.0000  0.0000
    11DUM    Al   74   2.130   1.697   1.914  0.0000  0.0000  0.0000
    11DUM    Al   75   0.913   1.697   0.697  0.0000  0.0000  0.0000
    11DUM    Al   76   0.913   0.479   1.914  0.0000  0.0000  0.0000
    11DUM    Al   77   0.129   0.697   0.913  0.0000  0.0000  0.0000
    11DUM    Al   78   0.129   1.914   2.130  0.0000  0.0000  0.0000
    11DUM    Al   79   1.347   1.914   0.913  0.0000  0.0000  0.0000
    11DUM    Al   80   1.347   0.697   2.130  0.0000  0.0000  0.0000
    11DUM    Al   81   2.346   0.913   0.479  0.0000  0.0000  0.0000
    11DUM    Al   82   2.346   2.130   1.697  0.0000  0.0000  0.0000
    11DUM    Al   83   1.129   2.130   0.479  0.0000  0.0000  0.0000
    11DUM    Al   84   1.129   0.913   1.697  0.0000  0.0000  0.0000
    11DUM    Al   85   1.521   0.738   1.306  0.0000  0.0000  0.0000
    11DUM    Al   86   1.521   1.955   0.089  0.0000  0.0000  0.0000
    11DUM    Al   87   0.304   1.955   1.306  0.0000  0.0000  0.0000
    11DUM    Al   88   0.304   0.738   0.089  0.0000  0.0000  0.0000
    11DUM    Al   89   1.955   0.520   1.522  0.0000  0.0000  0.0000
    11DUM    Al   90   1.955   1.737   0.305  0.0000  0.0000  0.0000
    11DUM    Al   91   0.738   1.737   1.522  0.0000  0.0000  0.0000
    11DUM    Al   92   0.738   0.520   0.305  0.0000  0.0000  0.0000
    11DUM    Al   93   1.737   0.304   1.088  0.0000  0.0000  0.0000
    11DUM    Al   94   1.737   1.521   2.305  0.0000  0.0000  0.0000
    11DUM    Al   95   0.520   1.521   1.088  0.0000  0.0000  0.0000
    11DUM    Al   96   0.520   0.304   2.305  0.0000  0.0000  0.0000
    11DUM    Si   97   0.129   2.130   2.346  0.0000  0.0000  0.0000
    11DUM    Si   98   0.129   0.913   1.129  0.0000  0.0000  0.0000
    11DUM    Si   99   1.347   0.913   2.346  0.0000  0.0000  0.0000
    11DUM    Si  100   1.347   2.130   1.129  0.0000  0.0000  0.0000
    11DUM    Si  101   2.346   0.129   2.130  0.0000  0.0000  0.0000
    11DUM    Si  102   2.346   1.347   0.913  0.0000  0.0000  0.0000
    11DUM    Si  103   1.129   1.347   2.130  0.0000  0.0000  0.0000
    11DUM    Si  104   1.129   0.129   0.913  0.0000  0.0000  0.0000
    11DUM    Si  105   2.130   2.346   0.129  0.0000  0.0000  0.0000
    11DUM    Si  106   2.130   1.129   1.347  0.0000  0.0000  0.0000
    11DUM    Si  107   0.913   1.129   0.129  0.0000  0.0000  0.0000
    11DUM    Si  108   0.913   2.346   1.347  0.0000  0.0000  0.0000
    11DUM    Si  109   2.305   1.521   1.737  0.0000  0.0000  0.0000
    11DUM    Si  110   2.305   0.304   0.520  0.0000  0.0000  0.0000
    11DUM    Si  111   1.088   0.304   1.737  0.0000  0.0000  0.0000
    11DUM    Si  112   1.088   1.521   0.520  0.0000  0.0000  0.0000
    11DUM    Si  113   0.089   1.955   1.521  0.0000  0.0000  0.0000
    11DUM    Si  114   0.089   0.738   0.304  0.0000  0.0000  0.0000
    11DUM    Si  115   1.306   0.738   1.521  0.0000  0.0000  0.0000
    11DUM    Si  116   1.306   1.955   0.304  0.0000  0.0000  0.0000
    11DUM    Si  117   0.305   1.737   1.955  0.0000  0.0000  0.0000
    11DUM    Si  118   0.305   0.520   0.738  0.0000  0.0000  0.0000
    11DUM    Si  119   1.522   0.520   1.955  0.0000  0.0000  0.0000
    11DUM    Si  120   1.522   1.737   0.738  0.0000  0.0000  0.0000
    11DUM    Si  121   1.955   0.305   1.737  0.0000  0.0000  0.0000
    11DUM    Si  122   1.955   1.522   0.520  0.0000  0.0000  0.0000
    11DUM    Si  123   0.738   1.522   1.737  0.0000  0.0000  0.0000
    11DUM    Si  124   0.738   0.305   0.520  0.0000  0.0000  0.0000
    11DUM    Si  125   1.737   2.305   1.521  0.0000  0.0000  0.0000
    11DUM    Si  126   1.737   1.088   0.304  0.0000  0.0000  0.0000
    11DUM    Si  127   0.520   1.088   1.521  0.0000  0.0000  0.0000
    11DUM    Si  128   0.520   2.305   0.304  0.0000  0.0000  0.0000
    11DUM    Si  129   1.521   0.089   1.955  0.0000  0.0000  0.0000
    11DUM    Si  130   1.521   1.306   0.738  0.0000  0.0000  0.0000
    11DUM    Si  131   0.304   1.306   1.955  0.0000  0.0000  0.0000
    11DUM    Si  132   0.304   0.089   0.738  0.0000  0.0000  0.0000
    11DUM    Si  133   1.697   0.913   1.129  0.0000  0.0000  0.0000
    11DUM    Si  134   1.697   2.130   2.346  0.0000  0.0000  0.0000
    11DUM    Si  135   0.479   2.130   1.129  0.0000  0.0000  0.0000
    11DUM    Si  136   0.479   0.913   2.346  0.0000  0.0000  0.0000
    11DUM    Si  137   1.914   0.479   0.913  0.0000  0.0000  0.0000
    11DUM    Si  138   1.914   1.697   2.130  0.0000  0.0000  0.0000
    11DUM    Si  139   0.697   1.697   0.913  0.0000  0.0000  0.0000
    11DUM    Si  140   0.697   0.479   2.130  0.0000  0.0000  0.0000
    11DUM    Si  141   2.130   0.697   1.347  0.0000  0.0000  0.0000
    11DUM    Si  142   2.130   1.914   0.129  0.0000  0.0000  0.0000
    11DUM    Si  143   0.913   1.914   1.347  0.0000  0.0000  0.0000
    11DUM    Si  144   0.913   0.697   0.129  0.0000  0.0000  0.0000
    11DUM    Al  145   2.130   0.129   2.346  0.0000  0.0000  0.0000
    11DUM    Al  146   2.130   1.347   1.129  0.0000  0.0000  0.0000
    11DUM    Al  147   0.913   1.347   2.346  0.0000  0.0000  0.0000
    11DUM    Al  148   0.913   0.129   1.129  0.0000  0.0000  0.0000
    11DUM    Al  149   0.129   2.346   2.130  0.0000  0.0000  0.0000
    11DUM    Al  150   0.129   1.129   0.913  0.0000  0.0000  0.0000
    11DUM    Al  151   1.347   1.129   2.130  0.0000  0.0000  0.0000
    11DUM    Al  152   1.347   2.346   0.913  0.0000  0.0000  0.0000
    11DUM    Al  153   2.346   2.130   0.129  0.0000  0.0000  0.0000
    11DUM    Al  154   2.346   0.913   1.347  0.0000  0.0000  0.0000
    11DUM    Al  155   1.129   0.913   0.129  0.0000  0.0000  0.0000
    11DUM    Al  156   1.129   2.130   1.347  0.0000  0.0000  0.0000
    11DUM    Al  157   1.521   2.305   1.737  0.0000  0.0000  0.0000
    11DUM    Al  158   1.521   1.088   0.520  0.0000  0.0000  0.0000
    11DUM    Al  159   0.304   1.088   1.737  0.0000  0.0000  0.0000
    11DUM    Al  160   0.304   2.305   0.520  0.0000  0.0000  0.0000
    11DUM    Al  161   1.955   0.089   1.521  0.0000  0.0000  0.0000
    11DUM    Al  162   1.955   1.306   0.304  0.0000  0.0000  0.0000
    11DUM    Al  163   0.738   1.306   1.521  0.0000  0.0000  0.0000
    11DUM    Al  164   0.738   0.089   0.304  0.0000  0.0000  0.0000
    11DUM    Al  165   1.737   0.305   1.955  0.0000  0.0000  0.0000
    11DUM    Al  166   1.737   1.522   0.738  0.0000  0.0000  0.0000
    11DUM    Al  167   0.520   1.522   1.955  0.0000  0.0000  0.0000
    11DUM    Al  168   0.520   0.305   0.738  0.0000  0.0000  0.0000
    11DUM    Al  169   0.305   1.955   1.737  0.0000  0.0000  0.0000
    11DUM    Al  170   0.305   0.738   0.520  0.0000  0.0000  0.0000
    11DUM    Al  171   1.522   0.738   1.737  0.0000  0.0000  0.0000
    11DUM    Al  172   1.522   1.955   0.520  0.0000  0.0000  0.0000
    11DUM    Al  173   2.305   1.737   1.521  0.0000  0.0000  0.0000
    11DUM    Al  174   2.305   0.520   0.304  0.0000  0.0000  0.0000
    11DUM    Al  175   1.088   0.520   1.521  0.0000  0.0000  0.0000
    11DUM    Al  176   1.088   1.737   0.304  0.0000  0.0000  0.0000
    11DUM    Al  177   0.089   1.521   1.955  0.0000  0.0000  0.0000
    11DUM    Al  178   0.089   0.304   0.738  0.0000  0.0000  0.0000
    11DUM    Al  179   1.306   0.304   1.955  0.0000  0.0000  0.0000
    11DUM    Al  180   1.306   1.521   0.738  0.0000  0.0000  0.0000
    11DUM    Al  181   0.913   1.697   1.129  0.0000  0.0000  0.0000
    11DUM    Al  182   0.913   0.479   2.346  0.0000  0.0000  0.0000
    11DUM    Al  183   2.130   0.479   1.129  0.0000  0.0000  0.0000
    11DUM    Al  184   2.130   1.697   2.346  0.0000  0.0000  0.0000
    11DUM    Al  185   0.479   1.914   0.913  0.0000  0.0000  0.0000
    11DUM    Al  186   0.479   0.697   2.130  0.0000  0.0000  0.0000
    11DUM    Al  187   1.697   0.697   0.913  0.0000  0.0000  0.0000
    11DUM    Al  188   1.697   1.914   2.130  0.0000  0.0000  0.0000
    11DUM    Al  189   0.697   2.130   1.347  0.0000  0.0000  0.0000
    11DUM    Al  190   0.697   0.913   0.129  0.0000  0.0000  0.0000
    11DUM    Al  191   1.914   0.913   1.347  0.0000  0.0000  0.0000
    11DUM    Al  192   1.914   2.130   0.129  0.0000  0.0000  0.0000
    11DUM     O  193   2.181   0.254   0.000  0.0000  0.0000  0.0000
    11DUM     O  194   2.181   1.471   1.217  0.0000  0.0000  0.0000
    11DUM     O  195   0.964   1.471   0.000  0.0000  0.0000  0.0000
    11DUM     O  196   0.964   0.254   1.217  0.0000  0.0000  0.0000
    11DUM     O  197   0.000   2.181   0.254  0.0000  0.0000  0.0000
    11DUM     O  198   0.000   0.964   1.471  0.0000  0.0000  0.0000
    11DUM     O  199   1.217   0.964   0.254  0.0000  0.0000  0.0000
    11DUM     O  200   1.217   2.181   1.471  0.0000  0.0000  0.0000
    11DUM     O  201   0.254   0.000   2.181  0.0000  0.0000  0.0000
    11DUM     O  202   0.254   1.217   0.964  0.0000  0.0000  0.0000
    11DUM     O  203   1.471   1.217   2.181  0.0000  0.0000  0.0000
    11DUM     O  204   1.471   0.000   0.964  0.0000  0.0000  0.0000
    11DUM     O  205   0.254   0.862   0.609  0.0000  0.0000  0.0000
    11DUM     O  206   0.254   2.080   1.826  0.0000  0.0000  0.0000
    11DUM     O  207   1.471   2.080   0.609  0.0000  0.0000  0.0000
    11DUM     O  208   1.471   0.862   1.826  0.0000  0.0000  0.0000
    11DUM     O  209   0.000   0.355   0.862  0.0000  0.0000  0.0000
    11DUM     O  210   0.000   1.572   2.080  0.0000  0.0000  0.0000
    11DUM     O  211   1.217   1.572   0.862  0.0000  0.0000  0.0000
    11DUM     O  212   1.217   0.355   2.080  0.0000  0.0000  0.0000
    11DUM     O  213   2.181   0.609   0.355  0.0000  0.0000  0.0000
    11DUM     O  214   2.181   1.826   1.572  0.0000  0.0000  0.0000
    11DUM     O  215   0.964   1.826   0.355  0.0000  0.0000  0.0000
    11DUM     O  216   0.964   0.609   1.572  0.0000  0.0000  0.0000
    11DUM     O  217   0.355   2.181   0.609  0.0000  0.0000  0.0000
    11DUM     O  218   0.355   0.964   1.826  0.0000  0.0000  0.0000
    11DUM     O  219   1.572   0.964   0.609  0.0000  0.0000  0.0000
    11DUM     O  220   1.572   2.181   1.826  0.0000  0.0000  0.0000
    11DUM     O  221   0.609   0.254   0.862  0.0000  0.0000  0.0000
    11DUM     O  222   0.609   1.471   2.080  0.0000  0.0000  0.0000
    11DUM     O  223   1.826   1.471   0.862  0.0000  0.0000  0.0000
    11DUM     O  224   1.826   0.254   2.080  0.0000  0.0000  0.0000
    11DUM     O  225   0.862   0.000   0.355  0.0000  0.0000  0.0000
    11DUM     O  226   0.862   1.217   1.572  0.0000  0.0000  0.0000
    11DUM     O  227   2.080   1.217   0.355  0.0000  0.0000  0.0000
    11DUM     O  228   2.080   0.000   1.572  0.0000  0.0000  0.0000
    11DUM     O  229   0.862   1.572   1.217  0.0000  0.0000  0.0000
    11DUM     O  230   0.862   0.355   0.000  0.0000  0.0000  0.0000
    11DUM     O  231   2.080   0.355   1.217  0.0000  0.0000  0.0000
    11DUM     O  232   2.080   1.572   0.000  0.0000  0.0000  0.0000
    11DUM     O  233   0.609   2.080   1.471  0.0000  0.0000  0.0000
    11DUM     O  234   0.609   0.862   0.254  0.0000  0.0000  0.0000
    11DUM     O  235   1.826   0.862   1.471  0.0000  0.0000  0.0000
    11DUM     O  236   1.826   2.080   0.254  0.0000  0.0000  0.0000
    11DUM     O  237   0.355   1.826   0.964  0.0000  0.0000  0.0000
    11DUM     O  238   0.355   0.609   2.181  0.0000  0.0000  0.0000
    11DUM     O  239   1.572   0.609   0.964  0.0000  0.0000  0.0000
    11DUM     O  240   1.572   1.826   2.181  0.0000  0.0000  0.0000
    11DUM     O  241   0.254   2.181   0.000  0.0000  0.0000  0.0000
    11DUM     O  242   0.254   0.964   1.217  0.0000  0.0000  0.0000
    11DUM     O  243   1.471   0.964   0.000  0.0000  0.0000  0.0000
    11DUM     O  244   1.471   2.181   1.217  0.0000  0.0000  0.0000
    11DUM     O  245   2.181   0.000   0.254  0.0000  0.0000  0.0000
    11DUM     O  246   2.181   1.217   1.471  0.0000  0.0000  0.0000
    11DUM     O  247   0.964   1.217   0.254  0.0000  0.0000  0.0000
    11DUM     O  248   0.964   0.000   1.471  0.0000  0.0000  0.0000
    11DUM     O  249   0.000   0.254   2.181  0.0000  0.0000  0.0000
    11DUM     O  250   0.000   1.471   0.964  0.0000  0.0000  0.0000
    11DUM     O  251   1.217   1.471   2.181  0.0000  0.0000  0.0000
    11DUM     O  252   1.217   0.254   0.964  0.0000  0.0000  0.0000
    11DUM     O  253   0.862   0.254   0.609  0.0000  0.0000  0.0000
    11DUM     O  254   0.862   1.471   1.826  0.0000  0.0000  0.0000
    11DUM     O  255   2.080   1.471   0.609  0.0000  0.0000  0.0000
    11DUM     O  256   2.080   0.254   1.826  0.0000  0.0000  0.0000
    11DUM     O  257   0.355   0.000   0.862  0.0000  0.0000  0.0000
    11DUM     O  258   0.355   1.217   2.080  0.0000  0.0000  0.0000
    11DUM     O  259   1.572   1.217   0.862  0.0000  0.0000  0.0000
    11DUM     O  260   1.572   0.000   2.080  0.0000  0.0000  0.0000
    11DUM     O  261   0.609   2.181   0.355  0.0000  0.0000  0.0000
    11DUM     O  262   0.609   0.964   1.572  0.0000  0.0000  0.0000
    11DUM     O  263   1.826   0.964   0.355  0.0000  0.0000  0.0000
    11DUM     O  264   1.826   2.181   1.572  0.0000  0.0000  0.0000
    11DUM     O  265   2.181   0.355   0.609  0.0000  0.0000  0.0000
    11DUM     O  266   2.181   1.572   1.826  0.0000  0.0000  0.0000
    11DUM     O  267   0.964   1.572   0.609  0.0000  0.0000  0.0000
    11DUM     O  268   0.964   0.355   1.826  0.0000  0.0000  0.0000
    11DUM     O  269   0.254   0.609   0.862  0.0000  0.0000  0.0000
    11DUM     O  270   0.254   1.826   2.080  0.0000  0.0000  0.0000
    11DUM     O  271   1.471   1.826   0.862  0.0000  0.0000  0.0000
    11DUM     O  272   1.471   0.609   2.080  0.0000  0.0000  0.0000
    11DUM     O  273   0.000   0.862   0.355  0.0000  0.0000  0.0000
    11DUM     O  274   0.000   2.080   1.572  0.0000  0.0000  0.0000
    11DUM     O  275   1.217   2.080   0.355  0.0000  0.0000  0.0000
    11DUM     O  276   1.217   0.862   1.572  0.0000  0.0000  0.0000
    11DUM     O  277   1.572   0.862   1.217  0.0000  0.0000  0.0000
    11DUM     O  278   1.572   2.080   0.000  0.0000  0.0000  0.0000
    11DUM     O  279   0.355   2.080   1.217  0.0000  0.0000  0.0000
    11DUM     O  280   0.355   0.862   0.000  0.0000  0.0000  0.0000
    11DUM     O  281   2.080   0.609   1.471  0.0000  0.0000  0.0000
    11DUM     O  282   2.080   1.826   0.254  0.0000  0.0000  0.0000
    11DUM     O  283   0.862   1.826   1.471  0.0000  0.0000  0.0000
    11DUM     O  284   0.862   0.609   0.254  0.0000  0.0000  0.0000
    11DUM     O  285   1.826   0.355   0.964  0.0000  0.0000  0.0000
    11DUM     O  286   1.826   1.572   2.181  0.0000  0.0000  0.0000
    11DUM     O  287   0.609   1.572   0.964  0.0000  0.0000  0.0000
    11DUM     O  288   0.609   0.355   2.181  0.0000  0.0000  0.0000
    11DUM     O  289   2.354   0.186   0.186  0.0000  0.0000  0.0000
    11DUM     O  290   2.354   1.403   1.403  0.0000  0.0000  0.0000
    11DUM     O  291   1.137   1.403   0.186  0.0000  0.0000  0.0000
    11DUM     O  292   1.137   0.186   1.403  0.0000  0.0000  0.0000
    11DUM     O  293   0.186   2.354   0.186  0.0000  0.0000  0.0000
    11DUM     O  294   0.186   1.137   1.403  0.0000  0.0000  0.0000
    11DUM     O  295   1.403   1.137   0.186  0.0000  0.0000  0.0000
    11DUM     O  296   1.403   2.354   1.403  0.0000  0.0000  0.0000
    11DUM     O  297   0.186   0.186   2.354  0.0000  0.0000  0.0000
    11DUM     O  298   0.186   1.403   1.137  0.0000  0.0000  0.0000
    11DUM     O  299   1.403   1.403   2.354  0.0000  0.0000  0.0000
    11DUM     O  300   1.403   0.186   1.137  0.0000  0.0000  0.0000
    11DUM     O  301   0.081   0.794   0.794  0.0000  0.0000  0.0000
    11DUM     O  302   0.081   2.011   2.011  0.0000  0.0000  0.0000
    11DUM     O  303   1.298   2.011   0.794  0.0000  0.0000  0.0000
    11DUM     O  304   1.298   0.794   2.011  0.0000  0.0000  0.0000
    11DUM     O  305   2.249   0.528   0.794  0.0000  0.0000  0.0000
    11DUM     O  306   2.249   1.745   2.011  0.0000  0.0000  0.0000
    11DUM     O  307   1.032   1.745   0.794  0.0000  0.0000  0.0000
    11DUM     O  308   1.032   0.528   2.011  0.0000  0.0000  0.0000
    11DUM     O  309   2.249   0.794   0.528  0.0000  0.0000  0.0000
    11DUM     O  310   2.249   2.011   1.745  0.0000  0.0000  0.0000
    11DUM     O  311   1.032   2.011   0.528  0.0000  0.0000  0.0000
    11DUM     O  312   1.032   0.794   1.745  0.0000  0.0000  0.0000
    11DUM     O  313   0.528   2.249   0.794  0.0000  0.0000  0.0000
    11DUM     O  314   0.528   1.032   2.011  0.0000  0.0000  0.0000
    11DUM     O  315   1.745   1.032   0.794  0.0000  0.0000  0.0000
    11DUM     O  316   1.745   2.249   2.011  0.0000  0.0000  0.0000
    11DUM     O  317   0.794   0.081   0.794  0.0000  0.0000  0.0000
    11DUM     O  318   0.794   1.298   2.011  0.0000  0.0000  0.0000
    11DUM     O  319   2.011   1.298   0.794  0.0000  0.0000  0.0000
    11DUM     O  320   2.011   0.081   2.011  0.0000  0.0000  0.0000
    11DUM     O  321   0.794   2.249   0.528  0.0000  0.0000  0.0000
    11DUM     O  322   0.794   1.032   1.745  0.0000  0.0000  0.0000
    11DUM     O  323   2.011   1.032   0.528  0.0000  0.0000  0.0000
    11DUM     O  324   2.011   2.249   1.745  0.0000  0.0000  0.0000
    11DUM     O  325   0.689   1.640   1.403  0.0000  0.0000  0.0000
    11DUM     O  326   0.689   0.423   0.186  0.0000  0.0000  0.0000
    11DUM     O  327   1.906   0.423   1.403  0.0000  0.0000  0.0000
    11DUM     O  328   1.906   1.640   0.186  0.0000  0.0000  0.0000
    11DUM     O  329   0.423   1.906   1.403  0.0000  0.0000  0.0000
    11DUM     O  330   0.423   0.689   0.186  0.0000  0.0000  0.0000
    11DUM     O  331   1.640   0.689   1.403  0.0000  0.0000  0.0000
    11DUM     O  332   1.640   1.906   0.186  0.0000  0.0000  0.0000
    11DUM     O  333   0.423   1.640   1.137  0.0000  0.0000  0.0000
    11DUM     O  334   0.423   0.423   2.354  0.0000  0.0000  0.0000
    11DUM     O  335   1.640   0.423   1.137  0.0000  0.0000  0.0000
    11DUM     O  336   1.640   1.640   2.354  0.0000  0.0000  0.0000
    11DUM     O  337   0.081   2.249   2.249  0.0000  0.0000  0.0000
    11DUM     O  338   0.081   1.032   1.032  0.0000  0.0000  0.0000
    11DUM     O  339   1.298   1.032   2.249  0.0000  0.0000  0.0000
    11DUM     O  340   1.298   2.249   1.032  0.0000  0.0000  0.0000
    11DUM     O  341   2.249   0.081   2.249  0.0000  0.0000  0.0000
    11DUM     O  342   2.249   1.298   1.032  0.0000  0.0000  0.0000
    11DUM     O  343   1.032   1.298   2.249  0.0000  0.0000  0.0000
    11DUM     O  344   1.032   0.081   1.032  0.0000  0.0000  0.0000
    11DUM     O  345   2.249   2.249   0.081  0.0000  0.0000  0.0000
    11DUM     O  346   2.249   1.032   1.298  0.0000  0.0000  0.0000
    11DUM     O  347   1.032   1.032   0.081  0.0000  0.0000  0.0000
    11DUM     O  348   1.032   2.249   1.298  0.0000  0.0000  0.0000
    11DUM     O  349   2.354   1.640   1.640  0.0000  0.0000  0.0000
    11DUM     O  350   2.354   0.423   0.423  0.0000  0.0000  0.0000
    11DUM     O  351   1.137   0.423   1.640  0.0000  0.0000  0.0000
    11DUM     O  352   1.137   1.640   0.423  0.0000  0.0000  0.0000
    11DUM     O  353   0.186   1.906   1.640  0.0000  0.0000  0.0000
    11DUM     O  354   0.186   0.689   0.423  0.0000  0.0000  0.0000
    11DUM     O  355   1.403   0.689   1.640  0.0000  0.0000  0.0000
    11DUM     O  356   1.403   1.906   0.423  0.0000  0.0000  0.0000
    11DUM     O  357   0.186   1.640   1.906  0.0000  0.0000  0.0000
    11DUM     O  358   0.186   0.423   0.689  0.0000  0.0000  0.0000
    11DUM     O  359   1.403   0.423   1.906  0.0000  0.0000  0.0000
    11DUM     O  360   1.403   1.640   0.689  0.0000  0.0000  0.0000
    11DUM     O  361   1.906   0.186   1.640  0.0000  0.0000  0.0000
    11DUM     O  362   1.906   1.403   0.423  0.0000  0.0000  0.0000
    11DUM     O  363   0.689   1.403   1.640  0.0000  0.0000  0.0000
    11DUM     O  364   0.689   0.186   0.423  0.0000  0.0000  0.0000
    11DUM     O  365   1.640   2.354   1.640  0.0000  0.0000  0.0000
    11DUM     O  366   1.640   1.137   0.423  0.0000  0.0000  0.0000
    11DUM     O  367   0.423   1.137   1.640  0.0000  0.0000  0.0000
    11DUM     O  368   0.423   2.354   0.423  0.0000  0.0000  0.0000
    11DUM     O  369   1.640   0.186   1.906  0.0000  0.0000  0.0000
    11DUM     O  370   1.640   1.403   0.689  0.0000  0.0000  0.0000
    11DUM     O  371   0.423   1.403   1.906  0.0000  0.0000  0.0000
    11DUM     O  372   0.423   0.186   0.689  0.0000  0.0000  0.0000
    11DUM     O  373   1.745   0.794   1.032  0.0000  0.0000  0.0000
    11DUM     O  374   1.745   2.011   2.249  0.0000  0.0000  0.0000
    11DUM     O  375   0.528   2.011   1.032  0.0000  0.0000  0.0000
    11DUM     O  376   0.528   0.794   2.249  0.0000  0.0000  0.0000
    11DUM     O  377   2.011   0.528   1.032  0.0000  0.0000  0.0000
    11DUM     O  378   2.011   1.745   2.249  0.0000  0.0000  0.0000
    11DUM     O  379   0.794   1.745   1.032  0.0000  0.0000  0.0000
    11DUM     O  380   0.794   0.528   2.249  0.0000  0.0000  0.0000
    11DUM     O  381   2.011   0.794   1.298  0.0000  0.0000  0.0000
    11DUM     O  382   2.011   2.011   0.081  0.0000  0.0000  0.0000
    11DUM     O  383   0.794   2.011   1.298  0.0000  0.0000  0.0000
    11DUM     O  384   0.794   0.794   0.081  0.0000  0.0000  0.0000
    11DUM     O  385   2.426   0.348   2.426  0.0000  0.0000  0.0000
    11DUM     O  386   2.426   1.565   1.209  0.0000  0.0000  0.0000
    11DUM     O  387   1.209   1.565   2.426  0.0000  0.0000  0.0000
    11DUM     O  388   1.209   0.348   1.209  0.0000  0.0000  0.0000
    11DUM     O  389   2.426   2.426   0.348  0.0000  0.0000  0.0000
    11DUM     O  390   2.426   1.209   1.565  0.0000  0.0000  0.0000
    11DUM     O  391   1.209   1.209   0.348  0.0000  0.0000  0.0000
    11DUM     O  392   1.209   2.426   1.565  0.0000  0.0000  0.0000
    11DUM     O  393   0.348   2.426   2.426  0.0000  0.0000  0.0000
    11DUM     O  394   0.348   1.209   1.209  0.0000  0.0000  0.0000
    11DUM     O  395   1.565   1.209   2.426  0.0000  0.0000  0.0000
    11DUM     O  396   1.565   2.426   1.209  0.0000  0.0000  0.0000
    11DUM     O  397   0.008   0.957   0.600  0.0000  0.0000  0.0000
    11DUM     O  398   0.008   2.174   1.818  0.0000  0.0000  0.0000
    11DUM     O  399   1.226   2.174   0.600  0.0000  0.0000  0.0000
    11DUM     O  400   1.226   0.957   1.818  0.0000  0.0000  0.0000
    11DUM     O  401   0.008   0.600   0.957  0.0000  0.0000  0.0000
    11DUM     O  402   0.008   1.818   2.174  0.0000  0.0000  0.0000
    11DUM     O  403   1.226   1.818   0.957  0.0000  0.0000  0.0000
    11DUM     O  404   1.226   0.600   2.174  0.0000  0.0000  0.0000
    11DUM     O  405   2.087   0.600   0.600  0.0000  0.0000  0.0000
    11DUM     O  406   2.087   1.818   1.818  0.0000  0.0000  0.0000
    11DUM     O  407   0.869   1.818   0.600  0.0000  0.0000  0.0000
    11DUM     O  408   0.869   0.600   1.818  0.0000  0.0000  0.0000
    11DUM     O  409   0.600   2.087   0.600  0.0000  0.0000  0.0000
    11DUM     O  410   0.600   0.869   1.818  0.0000  0.0000  0.0000
    11DUM     O  411   1.818   0.869   0.600  0.0000  0.0000  0.0000
    11DUM     O  412   1.818   2.087   1.818  0.0000  0.0000  0.0000
    11DUM     O  413   0.600   0.008   0.957  0.0000  0.0000  0.0000
    11DUM     O  414   0.600   1.226   2.174  0.0000  0.0000  0.0000
    11DUM     O  415   1.818   1.226   0.957  0.0000  0.0000  0.0000
    11DUM     O  416   1.818   0.008   2.174  0.0000  0.0000  0.0000
    11DUM     O  417   0.957   0.008   0.600  0.0000  0.0000  0.0000
    11DUM     O  418   0.957   1.226   1.818  0.0000  0.0000  0.0000
    11DUM     O  419   2.174   1.226   0.600  0.0000  0.0000  0.0000
    11DUM     O  420   2.174   0.008   1.818  0.0000  0.0000  0.0000
    11DUM     O  421   0.617   1.478   1.209  0.0000  0.0000  0.0000
    11DUM     O  422   0.617   0.261   2.426  0.0000  0.0000  0.0000
    11DUM     O  423   1.834   0.261   1.209  0.0000  0.0000  0.0000
    11DUM     O  424   1.834   1.478   2.426  0.0000  0.0000  0.0000
    11DUM     O  425   0.617   1.834   1.565  0.0000  0.0000  0.0000
    11DUM     O  426   0.617   0.617   0.348  0.0000  0.0000  0.0000
    11DUM     O  427   1.834   0.617   1.565  0.0000  0.0000  0.0000
    11DUM     O  428   1.834   1.834   0.348  0.0000  0.0000  0.0000
    11DUM     O  429   0.261   1.834   1.209  0.0000  0.0000  0.0000
    11DUM     O  430   0.261   0.617   2.426  0.0000  0.0000  0.0000
    11DUM     O  431   1.478   0.617   1.209  0.0000  0.0000  0.0000
    11DUM     O  432   1.478   1.834   2.426  0.0000  0.0000  0.0000
    11DUM     O  433   0.008   2.087   0.008  0.0000  0.0000  0.0000
    11DUM     O  434   0.008   0.869   1.226  0.0000  0.0000  0.0000
    11DUM     O  435   1.226   0.869   0.008  0.0000  0.0000  0.0000
    11DUM     O  436   1.226   2.087   1.226  0.0000  0.0000  0.0000
    11DUM     O  437   0.008   0.008   2.087  0.0000  0.0000  0.0000
    11DUM     O  438   0.008   1.226   0.869  0.0000  0.0000  0.0000
    11DUM     O  439   1.226   1.226   2.087  0.0000  0.0000  0.0000
    11DUM     O  440   1.226   0.008   0.869  0.0000  0.0000  0.0000
    11DUM     O  441   2.087   0.008   0.008  0.0000  0.0000  0.0000
    11DUM     O  442   2.087   1.226   1.226  0.0000  0.0000  0.0000
    11DUM     O  443   0.869   1.226   0.008  0.0000  0.0000  0.0000
    11DUM     O  444   0.869   0.008   1.226  0.0000  0.0000  0.0000
    11DUM     O  445   2.426   1.478   1.834  0.0000  0.0000  0.0000
    11DUM     O  446   2.426   0.261   0.617  0.0000  0.0000  0.0000
    11DUM     O  447   1.209   0.261   1.834  0.0000  0.0000  0.0000
    11DUM     O  448   1.209   1.478   0.617  0.0000  0.0000  0.0000
    11DUM     O  449   2.426   1.834   1.478  0.0000  0.0000  0.0000
    11DUM     O  450   2.426   0.617   0.261  0.0000  0.0000  0.0000
    11DUM     O  451   1.209   0.617   1.478  0.0000  0.0000  0.0000
    11DUM     O  452   1.209   1.834   0.261  0.0000  0.0000  0.0000
    11DUM     O  453   0.348   1.834   1.834  0.0000  0.0000  0.0000
    11DUM     O  454   0.348   0.617   0.617  0.0000  0.0000  0.0000
    11DUM     O  455   1.565   0.617   1.834  0.0000  0.0000  0.0000
    11DUM     O  456   1.565   1.834   0.617  0.0000  0.0000  0.0000
    11DUM     O  457   1.834   0.348   1.834  0.0000  0.0000  0.0000
    11DUM     O  458   1.834   1.565   0.617  0.0000  0.0000  0.0000
    11DUM     O  459   0.617   1.565   1.834  0.0000  0.0000  0.0000
    11DUM     O  460   0.617   0.348   0.617  0.0000  0.0000  0.0000
    11DUM     O  461   1.834   2.426   1.478  0.0000  0.0000  0.0000
    11DUM     O  462   1.834   1.209   0.261  0.0000  0.0000  0.0000
    11DUM     O  463   0.617   1.209   1.478  0.0000  0.0000  0.0000
    11DUM     O  464   0.617   2.426   0.261  0.0000  0.0000  0.0000
    11DUM     O  465   1.478   2.426   1.834  0.0000  0.0000  0.0000
    11DUM     O  466   1.478   1.209   0.617  0.0000  0.0000  0.0000
    11DUM     O  467   0.261   1.209   1.834  0.0000  0.0000  0.0000
    11DUM     O  468   0.261   2.426   0.617  0.0000  0.0000  0.0000
    11DUM     O  469   1.818   0.957   1.226  0.0000  0.0000  0.0000
    11DUM     O  470   1.818   2.174   0.008  0.0000  0.0000  0.0000
    11DUM     O  471   0.600   2.174   1.226  0.0000  0.0000  0.0000
    11DUM     O  472   0.600   0.957   0.008  0.0000  0.0000  0.0000
    11DUM     O  473   1.818   0.600   0.869  0.0000  0.0000  0.0000
    11DUM     O  474   1.818   1.818   2.087  0.0000  0.0000  0.0000
    11DUM     O  475   0.600   1.818   0.869  0.0000  0.0000  0.0000
    11DUM     O  476   0.600   0.600   2.087  0.0000  0.0000  0.0000
    11DUM     O  477   2.174   0.600   1.226  0.0000  0.0000  0.0000
    11DUM     O  478   2.174   1.818   0.008  0.0000  0.0000  0.0000
    11DUM     O  479   0.957   1.818   1.226  0.0000  0.0000  0.0000
    11DUM     O  480   0.957   0.600   0.008  0.0000  0.0000  0.0000
    11DUM     O  481   2.260   0.431   0.178  0.0000  0.0000  0.0000
    11DUM     O  482   2.260   1.648   1.395  0.0000  0.0000  0.0000
    11DUM     O  483   1.043   1.648   0.178  0.0000  0.0000  0.0000
    11DUM     O  484   1.043   0.431   1.395  0.0000  0.0000  0.0000
    11DUM     O  485   0.178   2.260   0.431  0.0000  0.0000  0.0000
    11DUM     O  486   0.178   1.043   1.648  0.0000  0.0000  0.0000
    11DUM     O  487   1.395   1.043   0.431  0.0000  0.0000  0.0000
    11DUM     O  488   1.395   2.260   1.648  0.0000  0.0000  0.0000
    11DUM     O  489   0.431   0.178   2.260  0.0000  0.0000  0.0000
    11DUM     O  490   0.431   1.395   1.043  0.0000  0.0000  0.0000
    11DUM     O  491   1.648   1.395   2.260  0.0000  0.0000  0.0000
    11DUM     O  492   1.648   0.178   1.043  0.0000  0.0000  0.0000
    11DUM     O  493   0.175   1.040   0.786  0.0000  0.0000  0.0000
    11DUM     O  494   0.175   2.257   2.004  0.0000  0.0000  0.0000
    11DUM     O  495   1.392   2.257   0.786  0.0000  0.0000  0.0000
    11DUM     O  496   1.392   1.040   2.004  0.0000  0.0000  0.0000
    11DUM     O  497   2.257   0.434   1.040  0.0000  0.0000  0.0000
    11DUM     O  498   2.257   1.651   2.257  0.0000  0.0000  0.0000
    11DUM     O  499   1.040   1.651   1.040  0.0000  0.0000  0.0000
    11DUM     O  500   1.040   0.434   2.257  0.0000  0.0000  0.0000
    11DUM     O  501   2.004   0.786   0.434  0.0000  0.0000  0.0000
    11DUM     O  502   2.004   2.004   1.651  0.0000  0.0000  0.0000
    11DUM     O  503   0.786   2.004   0.434  0.0000  0.0000  0.0000
    11DUM     O  504   0.786   0.786   1.651  0.0000  0.0000  0.0000
    11DUM     O  505   0.434   2.004   0.786  0.0000  0.0000  0.0000
    11DUM     O  506   0.434   0.786   2.004  0.0000  0.0000  0.0000
    11DUM     O  507   1.651   0.786   0.786  0.0000  0.0000  0.0000
    11DUM     O  508   1.651   2.004   2.004  0.0000  0.0000  0.0000
    11DUM     O  509   0.786   0.175   1.040  0.0000  0.0000  0.0000
    11DUM     O  510   0.786   1.392   2.257  0.0000  0.0000  0.0000
    11DUM     O  511   2.004   1.392   1.040  0.0000  0.0000  0.0000
    11DUM     O  512   2.004   0.175   2.257  0.0000  0.0000  0.0000
    11DUM     O  513   1.040   2.257   0.434  0.0000  0.0000  0.0000
    11DUM     O  514   1.040   1.040   1.651  0.0000  0.0000  0.0000
    11DUM     O  515   2.257   1.040   0.434  0.0000  0.0000  0.0000
    11DUM     O  516   2.257   2.257   1.651  0.0000  0.0000  0.0000
    11DUM     O  517   0.783   1.395   1.395  0.0000  0.0000  0.0000
    11DUM     O  518   0.783   0.178   0.178  0.0000  0.0000  0.0000
    11DUM     O  519   2.000   0.178   1.395  0.0000  0.0000  0.0000
    11DUM     O  520   2.000   1.395   0.178  0.0000  0.0000  0.0000
    11DUM     O  521   0.431   2.000   1.648  0.0000  0.0000  0.0000
    11DUM     O  522   0.431   0.783   0.431  0.0000  0.0000  0.0000
    11DUM     O  523   1.648   0.783   1.648  0.0000  0.0000  0.0000
    11DUM     O  524   1.648   2.000   0.431  0.0000  0.0000  0.0000
    11DUM     O  525   0.178   1.648   1.043  0.0000  0.0000  0.0000
    11DUM     O  526   0.178   0.431   2.260  0.0000  0.0000  0.0000
    11DUM     O  527   1.395   0.431   1.043  0.0000  0.0000  0.0000
    11DUM     O  528   1.395   1.648   2.260  0.0000  0.0000  0.0000
    11DUM     O  529   0.431   2.260   0.178  0.0000  0.0000  0.0000
    11DUM     O  530   0.431   1.043   1.395  0.0000  0.0000  0.0000
    11DUM     O  531   1.648   1.043   0.178  0.0000  0.0000  0.0000
    11DUM     O  532   1.648   2.260   1.395  0.0000  0.0000  0.0000
    11DUM     O  533   2.260   0.178   0.431  0.0000  0.0000  0.0000
    11DUM     O  534   2.260   1.395   1.648  0.0000  0.0000  0.0000
    11DUM     O  535   1.043   1.395   0.431  0.0000  0.0000  0.0000
    11DUM     O  536   1.043   0.178   1.648  0.0000  0.0000  0.0000
    11DUM     O  537   1.040   0.175   0.786  0.0000  0.0000  0.0000
    11DUM     O  538   1.040   1.392   2.004  0.0000  0.0000  0.0000
    11DUM     O  539   2.257   1.392   0.786  0.0000  0.0000  0.0000
    11DUM     O  540   2.257   0.175   2.004  0.0000  0.0000  0.0000
    11DUM     O  541   0.434   2.257   1.040  0.0000  0.0000  0.0000
    11DUM     O  542   0.434   1.040   2.257  0.0000  0.0000  0.0000
    11DUM     O  543   1.651   1.040   1.040  0.0000  0.0000  0.0000
    11DUM     O  544   1.651   2.257   2.257  0.0000  0.0000  0.0000
    11DUM     O  545   2.004   0.434   0.786  0.0000  0.0000  0.0000
    11DUM     O  546   2.004   1.651   2.004  0.0000  0.0000  0.0000
    11DUM     O  547   0.786   1.651   0.786  0.0000  0.0000  0.0000
    11DUM     O  548   0.786   0.434   2.004  0.0000  0.0000  0.0000
    11DUM     O  549   0.175   0.786   1.040  0.0000  0.0000  0.0000
    11DUM     O  550   0.175   2.004   2.257  0.0000  0.0000  0.0000
    11DUM     O  551   1.392   2.004   1.040  0.0000  0.0000  0.0000
    11DUM     O  552   1.392   0.786   2.257  0.0000  0.0000  0.0000
    11DUM     O  553   1.395   0.783   1.395  0.0000  0.0000  0.0000
    11DUM     O  554   1.395   2.000   0.178  0.0000  0.0000  0.0000
    11DUM     O  555   0.178   2.000   1.395  0.0000  0.0000  0.0000
    11DUM     O  556   0.178   0.783   0.178  0.0000  0.0000  0.0000
    11DUM     O  557   2.000   0.431   1.648  0.0000  0.0000  0.0000
    11DUM     O  558   2.000   1.648   0.431  0.0000  0.0000  0.0000
    11DUM     O  559   0.783   1.648   1.648  0.0000  0.0000  0.0000
    11DUM     O  560   0.783   0.431   0.431  0.0000  0.0000  0.0000
    11DUM     O  561   2.004   2.257   0.175  0.0000  0.0000  0.0000
    11DUM     O  562   2.004   1.040   1.392  0.0000  0.0000  0.0000
    11DUM     O  563   0.786   1.040   0.175  0.0000  0.0000  0.0000
    11DUM     O  564   0.786   2.257   1.392  0.0000  0.0000  0.0000
    11DUM     O  565   0.431   1.648   2.000  0.0000  0.0000  0.0000
    11DUM     O  566   0.431   0.431   0.783  0.0000  0.0000  0.0000
    11DUM     O  567   1.648   0.431   2.000  0.0000  0.0000  0.0000
    11DUM     O  568   1.648   1.648   0.783  0.0000  0.0000  0.0000
    11DUM     O  569   1.395   0.178   2.000  0.0000  0.0000  0.0000
    11DUM     O  570   1.395   1.395   0.783  0.0000  0.0000  0.0000
    11DUM     O  571   0.178   1.395   2.000  0.0000  0.0000  0.0000
    11DUM     O  572   0.178   0.178   0.783  0.0000  0.0000  0.0000
    11DUM     O  573   2.257   0.786   1.392  0.0000  0.0000  0.0000
    11DUM     O  574   2.257   2.004   0.175  0.0000  0.0000  0.0000
    11DUM     O  575   1.040   2.004   1.392  0.0000  0.0000  0.0000
    11DUM     O  576   1.040   0.786   0.175  0.0000  0.0000  0.0000
    11DUM    Cr  577   2.324   1.107   1.328  0.0000  0.0000  0.0000
    11DUM    Cr  578   0.498   1.715   1.715  0.0000  0.0000  0.0000
    11DUM    Cr  579   2.324   0.111   2.324  0.0000  0.0000  0.0000
    11DUM    Cr  580   0.498   0.498   0.498  0.0000  0.0000  0.0000
    11DUM    Cr  581   1.107   2.324   1.328  0.0000  0.0000  0.0000
    11DUM    Cr  582   1.715   0.498   1.715  0.0000  0.0000  0.0000
    11DUM    Cr  583   1.107   1.107   0.111  0.0000  0.0000  0.0000
    11DUM    Cr  584   1.715   1.715   0.498  0.0000  0.0000  0.0000
    11DUM    Cr  585   1.663   0.833   2.349  0.0000  0.0000  0.0000
    11DUM    Cr  586   1.911   1.054   1.441  0.0000  0.0000  0.0000
    11DUM    Cr  587   1.741   0.163   1.441  0.0000  0.0000  0.0000
    11DUM    Cr  588   1.911   0.163   2.211  0.0000  0.0000  0.0000
    11DUM    Cr  589   0.224   0.694   1.054  0.0000  0.0000  0.0000
    11DUM    Cr  590   0.993   0.523   1.054  0.0000  0.0000  0.0000
    11DUM    Cr  591   1.663   2.050   1.132  0.0000  0.0000  0.0000
    11DUM    Cr  592   1.911   2.271   0.224  0.0000  0.0000  0.0000
    11DUM    Cr  593   1.302   0.772   2.050  0.0000  0.0000  0.0000
    11DUM    Cr  594   0.385   1.132   0.772  0.0000  0.0000  0.0000
    11DUM    Cr  595   1.302   1.663   0.385  0.0000  0.0000  0.0000
    11DUM    Cr  596   1.132   1.663   2.050  0.0000  0.0000  0.0000
    11DUM    Cr  597   1.132   0.772   0.385  0.0000  0.0000  0.0000
    11DUM    Cr  598   2.050   1.302   0.772  0.0000  0.0000  0.0000
    11DUM    Cr  599   0.385   1.302   1.663  0.0000  0.0000  0.0000
    11DUM    Cr  600   0.385   0.085   0.446  0.0000  0.0000  0.0000
    11DUM    Cr  601   0.772   1.602   2.349  0.0000  0.0000  0.0000
    11DUM    Cr  602   1.302   1.989   0.833  0.0000  0.0000  0.0000
    11DUM    Cr  603   0.385   2.349   1.989  0.0000  0.0000  0.0000
    11DUM    Cr  604   0.833   1.302   1.989  0.0000  0.0000  0.0000
    11DUM    Cr  605   1.602   1.302   0.446  0.0000  0.0000  0.0000
    11DUM    Cr  606   0.833   1.132   0.446  0.0000  0.0000  0.0000
    11DUM    Cr  607   0.446   0.385   0.085  0.0000  0.0000  0.0000
    11DUM    Cr  608   0.446   2.050   2.349  0.0000  0.0000  0.0000
    11DUM     C  609   1.477   1.776   1.323  0.0000  0.0000  0.0000
    11DUM     O  610   1.375   1.766   1.269  0.0000  0.0000  0.0000
    11DUM     O  611   1.579   1.786   1.378  0.0000  0.0000  0.0000
    11DUM     C  612   1.183   2.165   2.274  0.0000  0.0000  0.0000
    11DUM     O  613   1.282   2.223   2.293  0.0000  0.0000  0.0000
    11DUM     O  614   1.084   2.108   2.254  0.0000  0.0000  0.0000
    11DUM     C  615   1.952   2.248   0.648  0.0000  0.0000  0.0000
    11DUM     O  616   1.886   2.302   0.569  0.0000  0.0000  0.0000
    11DUM     O  617   2.018   2.195   0.727  0.0000  0.0000  0.0000
    11DUM     C  618   2.003   1.011   2.020  0.0000  0.0000  0.0000
    11DUM     O  619   1.994   0.942   2.113  0.0000  0.0000  0.0000
    11DUM     O  620   2.012   1.080   1.927  0.0000  0.0000  0.0000
    11DUM     C  621   0.456   1.637   0.475  0.0000  0.0000  0.0000
    11DUM     O  622   0.418   1.538   0.520  0.0000  0.0000  0.0000
    11DUM     O  623   0.495   1.737   0.430  0.0000  0.0000  0.0000
    11DUM     C  624   0.179   0.600   1.398  0.0000  0.0000  0.0000
    11DUM     O  625   0.117   0.515   1.349  0.0000  0.0000  0.0000
    11DUM     O  626   0.242   0.684   1.448  0.0000  0.0000  0.0000
    11DUM     C  627   1.405   1.305   1.636  0.0000  0.0000  0.0000
    11DUM     O  628   1.397   1.220   1.715  0.0000  0.0000  0.0000
    11DUM     O  629   1.414   1.389   1.557  0.0000  0.0000  0.0000
    11DUM     C  630   0.476   2.366   1.634  0.0000  0.0000  0.0000
    11DUM     O  631   0.366   2.328   1.626  0.0000  0.0000  0.0000
    11DUM     O  632   0.585   2.403   1.642  0.0000  0.0000  0.0000
    11DUM     C  633   0.281   1.629   0.016  0.0000  0.0000  0.0000
    11DUM     O  634   0.178   1.683   0.015  0.0000  0.0000  0.0000
    11DUM     O  635   0.384   1.576   0.018  0.0000  0.0000  0.0000
    11DUM     C  636   0.866   2.228   1.830  0.0000  0.0000  0.0000
    11DUM     O  637   0.836   2.123   1.789  0.0000  0.0000  0.0000
    11DUM     O  638   0.896   2.332   1.870  0.0000  0.0000  0.0000
    11DUM     C  639   0.770   0.917   1.203  0.0000  0.0000  0.0000
    11DUM     O  640   0.808   0.972   1.298  0.0000  0.0000  0.0000
    11DUM     O  641   0.732   0.862   1.108  0.0000  0.0000  0.0000
    11DUM     C  642   0.927   0.593   0.717  0.0000  0.0000  0.0000
    11DUM     O  643   1.039   0.579   0.687  0.0000  0.0000  0.0000
    11DUM     O  644   0.816   0.607   0.746  0.0000  0.0000  0.0000
    11DUM     C  645   1.568   0.517   0.317  0.0000  0.0000  0.0000
    11DUM     O  646   1.568   0.417   0.377  0.0000  0.0000  0.0000
    11DUM     O  647   1.569   0.616   0.257  0.0000  0.0000  0.0000
    11DUM     C  648   0.079   0.439   1.882  0.0000  0.0000  0.0000
    11DUM     O  649   0.160   0.356   1.882  0.0000  0.0000  0.0000
    11DUM     O  650  -0.001   0.522   1.882  0.0000  0.0000  0.0000
    11DUM     C  651   0.612   0.511   1.524  0.0000  0.0000  0.0000
    11DUM     O  652   0.616   0.425   1.602  0.0000  0.0000  0.0000
    11DUM     O  653   0.608   0.597   1.447  0.0000  0.0000  0.0000
   2.43450   2.43450   2.43450   0.00000   0.00000   0.00000   0.00000   0.00000   0.00000
