[ defaults ]
; nbfunc  comb-rule  gen-pairs  fudgeLJ  fudgeQQ
1  2  yes  0.5  0.5

[ atomtypes ]
; name  mass    charge  ptype  sigma(nm)   epsilon(kJ/mol)
SI     28.0855  0.0000  A       0.230000    0.182919
AL     26.9815  0.0000  A       0.230000    0.182919
OZ     15.9994  0.0000  A       0.330000    0.440669
CR     51.9961  0.0000  A       0.269319    0.062755
CX     12.0110  0.0000  A       0.274500    0.248907
OX     15.9994  0.0000  A       0.301700    0.712408

[ nonbond_params ]
; i j func sigma epsilon
SI SI 1 0.30 0.0
SI AL 1 0.30 0.0
SI OZ 1 0.30 0.0
SI CR 1 0.30 0.0
AL AL 1 0.30 0.0
AL OZ 1 0.30 0.0
AL CR 1 0.30 0.0
OZ OZ 1 0.30 0.0
OZ CR 1 0.30 0.0
CR CR 1 0.30 0.0

[ moleculetype ]
; name  nrexcl
FRM  1

[ atoms ]
; id  type  resnr  resname  atom  cgnr  charge   mass
1  SI  1  FRM  SI  1    0.2600   28.0855
2  SI  1  FRM  SI  2    0.2600   28.0855
3  SI  1  FRM  SI  3    0.2600   28.0855
4  SI  1  FRM  SI  4    0.2600   28.0855
5  SI  1  FRM  SI  5    0.2600   28.0855
6  SI  1  FRM  SI  6    0.2600   28.0855
7  SI  1  FRM  SI  7    0.2600   28.0855
8  SI  1  FRM  SI  8    0.2600   28.0855
9  SI  1  FRM  SI  9    0.2600   28.0855
10  SI  1  FRM  SI  10    0.2600   28.0855
11  SI  1  FRM  SI  11    0.2600   28.0855
12  SI  1  FRM  SI  12    0.2600   28.0855
13  SI  1  FRM  SI  13    0.2600   28.0855
14  SI  1  FRM  SI  14    0.2600   28.0855
15  SI  1  FRM  SI  15    0.2600   28.0855
16  SI  1  FRM  SI  16    0.2600   28.0855
17  SI  1  FRM  SI  17    0.2600   28.0855
18  SI  1  FRM  SI  18    0.2600   28.0855
19  SI  1  FRM  SI  19    0.2600   28.0855
20  SI  1  FRM  SI  20    0.2600   28.0855
21  SI  1  FRM  SI  21    0.2600   28.0855
22  SI  1  FRM  SI  22    0.2600   28.0855
23  SI  1  FRM  SI  23    0.2600   28.0855
24  SI  1  FRM  SI  24    0.2600   28.0855
25  SI  1  FRM  SI  25    0.2600   28.0855
26  SI  1  FRM  SI  26    0.2600   28.0855
27  SI  1  FRM  SI  27    0.2600   28.0855
28  SI  1  FRM  SI  28    0.2600   28.0855
29  SI  1  FRM  SI  29    0.2600   28.0855
30  SI  1  FRM  SI  30    0.2600   28.0855
31  SI  1  FRM  SI  31    0.2600   28.0855
32  SI  1  FRM  SI  32    0.2600   28.0855
33  SI  1  FRM  SI  33    0.2600   28.0855
34  SI  1  FRM  SI  34    0.2600   28.0855
35  SI  1  FRM  SI  35    0.2600   28.0855
36  SI  1  FRM  SI  36    0.2600   28.0855
37  SI  1  FRM  SI  37    0.2600   28.0855
38  SI  1  FRM  SI  38    0.2600   28.0855
39  SI  1  FRM  SI  39    0.2600   28.0855
40  SI  1  FRM  SI  40    0.2600   28.0855
41  SI  1  FRM  SI  41    0.2600   28.0855
42  SI  1  FRM  SI  42    0.2600   28.0855
43  SI  1  FRM  SI  43    0.2600   28.0855
44  SI  1  FRM  SI  44    0.2600   28.0855
45  SI  1  FRM  SI  45    0.2600   28.0855
46  SI  1  FRM  SI  46    0.2600   28.0855
47  SI  1  FRM  SI  47    0.2600   28.0855
48  SI  1  FRM  SI  48    0.2600   28.0855
49  AL  1  FRM  AL  49    0.7130   26.9815
50  AL  1  FRM  AL  50    0.7130   26.9815
51  AL  1  FRM  AL  51    0.7130   26.9815
52  AL  1  FRM  AL  52    0.7130   26.9815
53  AL  1  FRM  AL  53    0.7130   26.9815
54  AL  1  FRM  AL  54    0.7130   26.9815
55  AL  1  FRM  AL  55    0.7130   26.9815
56  AL  1  FRM  AL  56    0.7130   26.9815
57  AL  1  FRM  AL  57    0.7130   26.9815
58  AL  1  FRM  AL  58    0.7130   26.9815
59  AL  1  FRM  AL  59    0.7130   26.9815
60  AL  1  FRM  AL  60    0.7130   26.9815
61  AL  1  FRM  AL  61    0.7130   26.9815
62  AL  1  FRM  AL  62    0.7130   26.9815
63  AL  1  FRM  AL  63    0.7130   26.9815
64  AL  1  FRM  AL  64    0.7130   26.9815
65  AL  1  FRM  AL  65    0.7130   26.9815
66  AL  1  FRM  AL  66    0.7130   26.9815
67  AL  1  FRM  AL  67    0.7130   26.9815
68  AL  1  FRM  AL  68    0.7130   26.9815
69  AL  1  FRM  AL  69    0.7130   26.9815
70  AL  1  FRM  AL  70    0.7130   26.9815
71  AL  1  FRM  AL  71    0.7130   26.9815
72  AL  1  FRM  AL  72    0.7130   26.9815
73  AL  1  FRM  AL  73    0.7130   26.9815
74  AL  1  FRM  AL  74    0.7130   26.9815
75  AL  1  FRM  AL  75    0.7130   26.9815
76  AL  1  FRM  AL  76    0.7130   26.9815
77  AL  1  FRM  AL  77    0.7130   26.9815
78  AL  1  FRM  AL  78    0.7130   26.9815
79  AL  1  FRM  AL  79    0.7130   26.9815
80  AL  1  FRM  AL  80    0.7130   26.9815
81  AL  1  FRM  AL  81    0.7130   26.9815
82  AL  1  FRM  AL  82    0.7130   26.9815
83  AL  1  FRM  AL  83    0.7130   26.9815
84  AL  1  FRM  AL  84    0.7130   26.9815
85  AL  1  FRM  AL  85    0.7130   26.9815
86  AL  1  FRM  AL  86    0.7130   26.9815
87  AL  1  FRM  AL  87    0.7130   26.9815
88  AL  1  FRM  AL  88    0.7130   26.9815
89  AL  1  FRM  AL  89    0.7130   26.9815
90  AL  1  FRM  AL  90    0.7130   26.9815
91  AL  1  FRM  AL  91    0.7130   26.9815
92  AL  1  FRM  AL  92    0.7130   26.9815
93  AL  1  FRM  AL  93    0.7130   26.9815
94  AL  1  FRM  AL  94    0.7130   26.9815
95  AL  1  FRM  AL  95    0.7130   26.9815
96  AL  1  FRM  AL  96    0.7130   26.9815
97  SI  1  FRM  SI  97    0.2600   28.0855
98  SI  1  FRM  SI  98    0.2600   28.0855
99  SI  1  FRM  SI  99    0.2600   28.0855
100  SI  1  FRM  SI  100    0.2600   28.0855
101  SI  1  FRM  SI  101    0.2600   28.0855
102  SI  1  FRM  SI  102    0.2600   28.0855
103  SI  1  FRM  SI  103    0.2600   28.0855
104  SI  1  FRM  SI  104    0.2600   28.0855
105  SI  1  FRM  SI  105    0.2600   28.0855
106  SI  1  FRM  SI  106    0.2600   28.0855
107  SI  1  FRM  SI  107    0.2600   28.0855
108  SI  1  FRM  SI  108    0.2600   28.0855
109  SI  1  FRM  SI  109    0.2600   28.0855
110  SI  1  FRM  SI  110    0.2600   28.0855
111  SI  1  FRM  SI  111    0.2600   28.0855
112  SI  1  FRM  SI  112    0.2600   28.0855
113  SI  1  FRM  SI  113    0.2600   28.0855
114  SI  1  FRM  SI  114    0.2600   28.0855
115  SI  1  FRM  SI  115    0.2600   28.0855
116  SI  1  FRM  SI  116    0.2600   28.0855
117  SI  1  FRM  SI  117    0.2600   28.0855
118  SI  1  FRM  SI  118    0.2600   28.0855
119  SI  1  FRM  SI  119    0.2600   28.0855
120  SI  1  FRM  SI  120    0.2600   28.0855
121  SI  1  FRM  SI  121    0.2600   28.0855
122  SI  1  FRM  SI  122    0.2600   28.0855
123  SI  1  FRM  SI  123    0.2600   28.0855
124  SI  1  FRM  SI  124    0.2600   28.0855
125  SI  1  FRM  SI  125    0.2600   28.0855
126  SI  1  FRM  SI  126    0.2600   28.0855
127  SI  1  FRM  SI  127    0.2600   28.0855
128  SI  1  FRM  SI  128    0.2600   28.0855
129  SI  1  FRM  SI  129    0.2600   28.0855
130  SI  1  FRM  SI  130    0.2600   28.0855
131  SI  1  FRM  SI  131    0.2600   28.0855
132  SI  1  FRM  SI  132    0.2600   28.0855
133  SI  1  FRM  SI  133    0.2600   28.0855
134  SI  1  FRM  SI  134    0.2600   28.0855
135  SI  1  FRM  SI  135    0.2600   28.0855
136  SI  1  FRM  SI  136    0.2600   28.0855
137  SI  1  FRM  SI  137    0.2600   28.0855
138  SI  1  FRM  SI  138    0.2600   28.0855
139  SI  1  FRM  SI  139    0.2600   28.0855
140  SI  1  FRM  SI  140    0.2600   28.0855
141  SI  1  FRM  SI  141    0.2600   28.0855
142  SI  1  FRM  SI  142    0.2600   28.0855
143  SI  1  FRM  SI  143    0.2600   28.0855
144  SI  1  FRM  SI  144    0.2600   28.0855
145  AL  1  FRM  AL  145    0.7130   26.9815
146  AL  1  FRM  AL  146    0.7130   26.9815
147  AL  1  FRM  AL  147    0.7130   26.9815
148  AL  1  FRM  AL  148    0.7130   26.9815
149  AL  1  FRM  AL  149    0.7130   26.9815
150  AL  1  FRM  AL  150    0.7130   26.9815
151  AL  1  FRM  AL  151    0.7130   26.9815
152  AL  1  FRM  AL  152    0.7130   26.9815
153  AL  1  FRM  AL  153    0.7130   26.9815
154  AL  1  FRM  AL  154    0.7130   26.9815
155  AL  1  FRM  AL  155    0.7130   26.9815
156  AL  1  FRM  AL  156    0.7130   26.9815
157  AL  1  FRM  AL  157    0.7130   26.9815
158  AL  1  FRM  AL  158    0.7130   26.9815
159  AL  1  FRM  AL  159    0.7130   26.9815
160  AL  1  FRM  AL  160    0.7130   26.9815
161  AL  1  FRM  AL  161    0.7130   26.9815
162  AL  1  FRM  AL  162    0.7130   26.9815
163  AL  1  FRM  AL  163    0.7130   26.9815
164  AL  1  FRM  AL  164    0.7130   26.9815
165  AL  1  FRM  AL  165    0.7130   26.9815
166  AL  1  FRM  AL  166    0.7130   26.9815
167  AL  1  FRM  AL  167    0.7130   26.9815
168  AL  1  FRM  AL  168    0.7130   26.9815
169  AL  1  FRM  AL  169    0.7130   26.9815
170  AL  1  FRM  AL  170    0.7130   26.9815
171  AL  1  FRM  AL  171    0.7130   26.9815
172  AL  1  FRM  AL  172    0.7130   26.9815
173  AL  1  FRM  AL  173    0.7130   26.9815
174  AL  1  FRM  AL  174    0.7130   26.9815
175  AL  1  FRM  AL  175    0.7130   26.9815
176  AL  1  FRM  AL  176    0.7130   26.9815
177  AL  1  FRM  AL  177    0.7130   26.9815
178  AL  1  FRM  AL  178    0.7130   26.9815
179  AL  1  FRM  AL  179    0.7130   26.9815
180  AL  1  FRM  AL  180    0.7130   26.9815
181  AL  1  FRM  AL  181    0.7130   26.9815
182  AL  1  FRM  AL  182    0.7130   26.9815
183  AL  1  FRM  AL  183    0.7130   26.9815
184  AL  1  FRM  AL  184    0.7130   26.9815
185  AL  1  FRM  AL  185    0.7130   26.9815
186  AL  1  FRM  AL  186    0.7130   26.9815
187  AL  1  FRM  AL  187    0.7130   26.9815
188  AL  1  FRM  AL  188    0.7130   26.9815
189  AL  1  FRM  AL  189    0.7130   26.9815
190  AL  1  FRM  AL  190    0.7130   26.9815
191  AL  1  FRM  AL  191    0.7130   26.9815
192  AL  1  FRM  AL  192    0.7130   26.9815
193  OZ  1  FRM  OZ  193   -0.3590   15.9994
194  OZ  1  FRM  OZ  194   -0.3590   15.9994
195  OZ  1  FRM  OZ  195   -0.3590   15.9994
196  OZ  1  FRM  OZ  196   -0.3590   15.9994
197  OZ  1  FRM  OZ  197   -0.3590   15.9994
198  OZ  1  FRM  OZ  198   -0.3590   15.9994
199  OZ  1  FRM  OZ  199   -0.3590   15.9994
200  OZ  1  FRM  OZ  200   -0.3590   15.9994
201  OZ  1  FRM  OZ  201   -0.3590   15.9994
202  OZ  1  FRM  OZ  202   -0.3590   15.9994
203  OZ  1  FRM  OZ  203   -0.3590   15.9994
204  OZ  1  FRM  OZ  204   -0.3590   15.9994
205  OZ  1  FRM  OZ  205   -0.3590   15.9994
206  OZ  1  FRM  OZ  206   -0.3590   15.9994
207  OZ  1  FRM  OZ  207   -0.3590   15.9994
208  OZ  1  FRM  OZ  208   -0.3590   15.9994
209  OZ  1  FRM  OZ  209   -0.3590   15.9994
210  OZ  1  FRM  OZ  210   -0.3590   15.9994
211  OZ  1  FRM  OZ  211   -0.3590   15.9994
212  OZ  1  FRM  OZ  212   -0.3590   15.9994
213  OZ  1  FRM  OZ  213   -0.3590   15.9994
214  OZ  1  FRM  OZ  214   -0.3590   15.9994
215  OZ  1  FRM  OZ  215   -0.3590   15.9994
216  OZ  1  FRM  OZ  216   -0.3590   15.9994
217  OZ  1  FRM  OZ  217   -0.3590   15.9994
218  OZ  1  FRM  OZ  218   -0.3590   15.9994
219  OZ  1  FRM  OZ  219   -0.3590   15.9994
220  OZ  1  FRM  OZ  220   -0.3590   15.9994
221  OZ  1  FRM  OZ  221   -0.3590   15.9994
222  OZ  1  FRM  OZ  222   -0.3590   15.9994
223  OZ  1  FRM  OZ  223   -0.3590   15.9994
224  OZ  1  FRM  OZ  224   -0.3590   15.9994
225  OZ  1  FRM  OZ  225   -0.3590   15.9994
226  OZ  1  FRM  OZ  226   -0.3590   15.9994
227  OZ  1  FRM  OZ  227   -0.3590   15.9994
228  OZ  1  FRM  OZ  228   -0.3590   15.9994
229  OZ  1  FRM  OZ  229   -0.3590   15.9994
230  OZ  1  FRM  OZ  230   -0.3590   15.9994
231  OZ  1  FRM  OZ  231   -0.3590   15.9994
232  OZ  1  FRM  OZ  232   -0.3590   15.9994
233  OZ  1  FRM  OZ  233   -0.3590   15.9994
234  OZ  1  FRM  OZ  234   -0.3590   15.9994
235  OZ  1  FRM  OZ  235   -0.3590   15.9994
236  OZ  1  FRM  OZ  236   -0.3590   15.9994
237  OZ  1  FRM  OZ  237   -0.3590   15.9994
238  OZ  1  FRM  OZ  238   -0.3590   15.9994
239  OZ  1  FRM  OZ  239   -0.3590   15.9994
240  OZ  1  FRM  OZ  240   -0.3590   15.9994
241  OZ  1  FRM  OZ  241   -0.3590   15.9994
242  OZ  1  FRM  OZ  242   -0.3590   15.9994
243  OZ  1  FRM  OZ  243   -0.3590   15.9994
244  OZ  1  FRM  OZ  244   -0.3590   15.9994
245  OZ  1  FRM  OZ  245   -0.3590   15.9994
246  OZ  1  FRM  OZ  246   -0.3590   15.9994
247  OZ  1  FRM  OZ  247   -0.3590   15.9994
248  OZ  1  FRM  OZ  248   -0.3590   15.9994
249  OZ  1  FRM  OZ  249   -0.3590   15.9994
250  OZ  1  FRM  OZ  250   -0.3590   15.9994
251  OZ  1  FRM  OZ  251   -0.3590   15.9994
252  OZ  1  FRM  OZ  252   -0.3590   15.9994
253  OZ  1  FRM  OZ  253   -0.3590   15.9994
254  OZ  1  FRM  OZ  254   -0.3590   15.9994
255  OZ  1  FRM  OZ  255   -0.3590   15.9994
256  OZ  1  FRM  OZ  256   -0.3590   15.9994
257  OZ  1  FRM  OZ  257   -0.3590   15.9994
258  OZ  1  FRM  OZ  258   -0.3590   15.9994
259  OZ  1  FRM  OZ  259   -0.3590   15.9994
260  OZ  1  FRM  OZ  260   -0.3590   15.9994
261  OZ  1  FRM  OZ  261   -0.3590   15.9994
262  OZ  1  FRM  OZ  262   -0.3590   15.9994
263  OZ  1  FRM  OZ  263   -0.3590   15.9994
264  OZ  1  FRM  OZ  264   -0.3590   15.9994
265  OZ  1  FRM  OZ  265   -0.3590   15.9994
266  OZ  1  FRM  OZ  266   -0.3590   15.9994
267  OZ  1  FRM  OZ  267   -0.3590   15.9994
268  OZ  1  FRM  OZ  268   -0.3590   15.9994
269  OZ  1  FRM  OZ  269   -0.3590   15.9994
270  OZ  1  FRM  OZ  270   -0.3590   15.9994
271  OZ  1  FRM  OZ  271   -0.3590   15.9994
272  OZ  1  FRM  OZ  272   -0.3590   15.9994
273  OZ  1  FRM  OZ  273   -0.3590   15.9994
274  OZ  1  FRM  OZ  274   -0.3590   15.9994
275  OZ  1  FRM  OZ  275   -0.3590   15.9994
276  OZ  1  FRM  OZ  276   -0.3590   15.9994
277  OZ  1  FRM  OZ  277   -0.3590   15.9994
278  OZ  1  FRM  OZ  278   -0.3590   15.9994
279  OZ  1  FRM  OZ  279   -0.3590   15.9994
280  OZ  1  FRM  OZ  280   -0.3590   15.9994
281  OZ  1  FRM  OZ  281   -0.3590   15.9994
282  OZ  1  FRM  OZ  282   -0.3590   15.9994
283  OZ  1  FRM  OZ  283   -0.3590   15.9994
284  OZ  1  FRM  OZ  284   -0.3590   15.9994
285  OZ  1  FRM  OZ  285   -0.3590   15.9994
286  OZ  1  FRM  OZ  286   -0.3590   15.9994
287  OZ  1  FRM  OZ  287   -0.3590   15.9994
288  OZ  1  FRM  OZ  288   -0.3590   15.9994
289  OZ  1  FRM  OZ  289   -0.3590   15.9994
290  OZ  1  FRM  OZ  290   -0.3590   15.9994
291  OZ  1  FRM  OZ  291   -0.3590   15.9994
292  OZ  1  FRM  OZ  292   -0.3590   15.9994
293  OZ  1  FRM  OZ  293   -0.3590   15.9994
294  OZ  1  FRM  OZ  294   -0.3590   15.9994
295  OZ  1  FRM  OZ  295   -0.3590   15.9994
296  OZ  1  FRM  OZ  296   -0.3590   15.9994
297  OZ  1  FRM  OZ  297   -0.3590   15.9994
298  OZ  1  FRM  OZ  298   -0.3590   15.9994
299  OZ  1  FRM  OZ  299   -0.3590   15.9994
300  OZ  1  FRM  OZ  300   -0.3590   15.9994
301  OZ  1  FRM  OZ  301   -0.3590   15.9994
302  OZ  1  FRM  OZ  302   -0.3590   15.9994
303  OZ  1  FRM  OZ  303   -0.3590   15.9994
304  OZ  1  FRM  OZ  304   -0.3590   15.9994
305  OZ  1  FRM  OZ  305   -0.3590   15.9994
306  OZ  1  FRM  OZ  306   -0.3590   15.9994
307  OZ  1  FRM  OZ  307   -0.3590   15.9994
308  OZ  1  FRM  OZ  308   -0.3590   15.9994
309  OZ  1  FRM  OZ  309   -0.3590   15.9994
310  OZ  1  FRM  OZ  310   -0.3590   15.9994
311  OZ  1  FRM  OZ  311   -0.3590   15.9994
312  OZ  1  FRM  OZ  312   -0.3590   15.9994
313  OZ  1  FRM  OZ  313   -0.3590   15.9994
314  OZ  1  FRM  OZ  314   -0.3590   15.9994
315  OZ  1  FRM  OZ  315   -0.3590   15.9994
316  OZ  1  FRM  OZ  316   -0.3590   15.9994
317  OZ  1  FRM  OZ  317   -0.3590   15.9994
318  OZ  1  FRM  OZ  318   -0.3590   15.9994
319  OZ  1  FRM  OZ  319   -0.3590   15.9994
320  OZ  1  FRM  OZ  320   -0.3590   15.9994
321  OZ  1  FRM  OZ  321   -0.3590   15.9994
322  OZ  1  FRM  OZ  322   -0.3590   15.9994
323  OZ  1  FRM  OZ  323   -0.3590   15.9994
324  OZ  1  FRM  OZ  324   -0.3590   15.9994
325  OZ  1  FRM  OZ  325   -0.3590   15.9994
326  OZ  1  FRM  OZ  326   -0.3590   15.9994
327  OZ  1  FRM  OZ  327   -0.3590   15.9994
328  OZ  1  FRM  OZ  328   -0.3590   15.9994
329  OZ  1  FRM  OZ  329   -0.3590   15.9994
330  OZ  1  FRM  OZ  330   -0.3590   15.9994
331  OZ  1  FRM  OZ  331   -0.3590   15.9994
332  OZ  1  FRM  OZ  332   -0.3590   15.9994
333  OZ  1  FRM  OZ  333   -0.3590   15.9994
334  OZ  1  FRM  OZ  334   -0.3590   15.9994
335  OZ  1  FRM  OZ  335   -0.3590   15.9994
336  OZ  1  FRM  OZ  336   -0.3590   15.9994
337  OZ  1  FRM  OZ  337   -0.3590   15.9994
338  OZ  1  FRM  OZ  338   -0.3590   15.9994
339  OZ  1  FRM  OZ  339   -0.3590   15.9994
340  OZ  1  FRM  OZ  340   -0.3590   15.9994
341  OZ  1  FRM  OZ  341   -0.3590   15.9994
342  OZ  1  FRM  OZ  342   -0.3590   15.9994
343  OZ  1  FRM  OZ  343   -0.3590   15.9994
344  OZ  1  FRM  OZ  344   -0.3590   15.9994
345  OZ  1  FRM  OZ  345   -0.3590   15.9994
346  OZ  1  FRM  OZ  346   -0.3590   15.9994
347  OZ  1  FRM  OZ  347   -0.3590   15.9994
348  OZ  1  FRM  OZ  348   -0.3590   15.9994
349  OZ  1  FRM  OZ  349   -0.3590   15.9994
350  OZ  1  FRM  OZ  350   -0.3590   15.9994
351  OZ  1  FRM  OZ  351   -0.3590   15.9994
352  OZ  1  FRM  OZ  352   -0.3590   15.9994
353  OZ  1  FRM  OZ  353   -0.3590   15.9994
354  OZ  1  FRM  OZ  354   -0.3590   15.9994
355  OZ  1  FRM  OZ  355   -0.3590   15.9994
356  OZ  1  FRM  OZ  356   -0.3590   15.9994
357  OZ  1  FRM  OZ  357   -0.3590   15.9994
358  OZ  1  FRM  OZ  358   -0.3590   15.9994
359  OZ  1  FRM  OZ  359   -0.3590   15.9994
360  OZ  1  FRM  OZ  360   -0.3590   15.9994
361  OZ  1  FRM  OZ  361   -0.3590   15.9994
362  OZ  1  FRM  OZ  362   -0.3590   15.9994
363  OZ  1  FRM  OZ  363   -0.3590   15.9994
364  OZ  1  FRM  OZ  364   -0.3590   15.9994
365  OZ  1  FRM  OZ  365   -0.3590   15.9994
366  OZ  1  FRM  OZ  366   -0.3590   15.9994
367  OZ  1  FRM  OZ  367   -0.3590   15.9994
368  OZ  1  FRM  OZ  368   -0.3590   15.9994
369  OZ  1  FRM  OZ  369   -0.3590   15.9994
370  OZ  1  FRM  OZ  370   -0.3590   15.9994
371  OZ  1  FRM  OZ  371   -0.3590   15.9994
372  OZ  1  FRM  OZ  372   -0.3590   15.9994
373  OZ  1  FRM  OZ  373   -0.3590   15.9994
374  OZ  1  FRM  OZ  374   -0.3590   15.9994
375  OZ  1  FRM  OZ  375   -0.3590   15.9994
376  OZ  1  FRM  OZ  376   -0.3590   15.9994
377  OZ  1  FRM  OZ  377   -0.3590   15.9994
378  OZ  1  FRM  OZ  378   -0.3590   15.9994
379  OZ  1  FRM  OZ  379   -0.3590   15.9994
380  OZ  1  FRM  OZ  380   -0.3590   15.9994
381  OZ  1  FRM  OZ  381   -0.3590   15.9994
382  OZ  1  FRM  OZ  382   -0.3590   15.9994
383  OZ  1  FRM  OZ  383   -0.3590   15.9994
384  OZ  1  FRM  OZ  384   -0.3590   15.9994
385  OZ  1  FRM  OZ  385   -0.3590   15.9994
386  OZ  1  FRM  OZ  386   -0.3590   15.9994
387  OZ  1  FRM  OZ  387   -0.3590   15.9994
388  OZ  1  FRM  OZ  388   -0.3590   15.9994
389  OZ  1  FRM  OZ  389   -0.3590   15.9994
390  OZ  1  FRM  OZ  390   -0.3590   15.9994
391  OZ  1  FRM  OZ  391   -0.3590   15.9994
392  OZ  1  FRM  OZ  392   -0.3590   15.9994
393  OZ  1  FRM  OZ  393   -0.3590   15.9994
394  OZ  1  FRM  OZ  394   -0.3590   15.9994
395  OZ  1  FRM  OZ  395   -0.3590   15.9994
396  OZ  1  FRM  OZ  396   -0.3590   15.9994
397  OZ  1  FRM  OZ  397   -0.3590   15.9994
398  OZ  1  FRM  OZ  398   -0.3590   15.9994
399  OZ  1  FRM  OZ  399   -0.3590   15.9994
400  OZ  1  FRM  OZ  400   -0.3590   15.9994
401  OZ  1  FRM  OZ  401   -0.3590   15.9994
402  OZ  1  FRM  OZ  402   -0.3590   15.9994
403  OZ  1  FRM  OZ  403   -0.3590   15.9994
404  OZ  1  FRM  OZ  404   -0.3590   15.9994
405  OZ  1  FRM  OZ  405   -0.3590   15.9994
406  OZ  1  FRM  OZ  406   -0.3590   15.9994
407  OZ  1  FRM  OZ  407   -0.3590   15.9994
408  OZ  1  FRM  OZ  408   -0.3590   15.9994
409  OZ  1  FRM  OZ  409   -0.3590   15.9994
410  OZ  1  FRM  OZ  410   -0.3590   15.9994
411  OZ  1  FRM  OZ  411   -0.3590   15.9994
412  OZ  1  FRM  OZ  412   -0.3590   15.9994
413  OZ  1  FRM  OZ  413   -0.3590   15.9994
414  OZ  1  FRM  OZ  414   -0.3590   15.9994
415  OZ  1  FRM  OZ  415   -0.3590   15.9994
416  OZ  1  FRM  OZ  416   -0.3590   15.9994
417  OZ  1  FRM  OZ  417   -0.3590   15.9994
418  OZ  1  FRM  OZ  418   -0.3590   15.9994
419  OZ  1  FRM  OZ  419   -0.3590   15.9994
420  OZ  1  FRM  OZ  420   -0.3590   15.9994
421  OZ  1  FRM  OZ  421   -0.3590   15.9994
422  OZ  1  FRM  OZ  422   -0.3590   15.9994
423  OZ  1  FRM  OZ  423   -0.3590   15.9994
424  OZ  1  FRM  OZ  424   -0.3590   15.9994
425  OZ  1  FRM  OZ  425   -0.3590   15.9994
426  OZ  1  FRM  OZ  426   -0.3590   15.9994
427  OZ  1  FRM  OZ  427   -0.3590   15.9994
428  OZ  1  FRM  OZ  428   -0.3590   15.9994
429  OZ  1  FRM  OZ  429   -0.3590   15.9994
430  OZ  1  FRM  OZ  430   -0.3590   15.9994
431  OZ  1  FRM  OZ  431   -0.3590   15.9994
432  OZ  1  FRM  OZ  432   -0.3590   15.9994
433  OZ  1  FRM  OZ  433   -0.3590   15.9994
434  OZ  1  FRM  OZ  434   -0.3590   15.9994
435  OZ  1  FRM  OZ  435   -0.3590   15.9994
436  OZ  1  FRM  OZ  436   -0.3590   15.9994
437  OZ  1  FRM  OZ  437   -0.3590   15.9994
438  OZ  1  FRM  OZ  438   -0.3590   15.9994
439  OZ  1  FRM  OZ  439   -0.3590   15.9994
440  OZ  1  FRM  OZ  440   -0.3590   15.9994
441  OZ  1  FRM  OZ  441   -0.3590   15.9994
442  OZ  1  FRM  OZ  442   -0.3590   15.9994
443  OZ  1  FRM  OZ  443   -0.3590   15.9994
444  OZ  1  FRM  OZ  444   -0.3590   15.9994
445  OZ  1  FRM  OZ  445   -0.3590   15.9994
446  OZ  1  FRM  OZ  446   -0.3590   15.9994
447  OZ  1  FRM  OZ  447   -0.3590   15.9994
448  OZ  1  FRM  OZ  448   -0.3590   15.9994
449  OZ  1  FRM  OZ  449   -0.3590   15.9994
450  OZ  1  FRM  OZ  450   -0.3590   15.9994
451  OZ  1  FRM  OZ  451   -0.3590   15.9994
452  OZ  1  FRM  OZ  452   -0.3590   15.9994
453  OZ  1  FRM  OZ  453   -0.3590   15.9994
454  OZ  1  FRM  OZ  454   -0.3590   15.9994
455  OZ  1  FRM  OZ  455   -0.3590   15.9994
456  OZ  1  FRM  OZ  456   -0.3590   15.9994
457  OZ  1  FRM  OZ  457   -0.3590   15.9994
458  OZ  1  FRM  OZ  458   -0.3590   15.9994
459  OZ  1  FRM  OZ  459   -0.3590   15.9994
460  OZ  1  FRM  OZ  460   -0.3590   15.9994
461  OZ  1  FRM  OZ  461   -0.3590   15.9994
462  OZ  1  FRM  OZ  462   -0.3590   15.9994
463  OZ  1  FRM  OZ  463   -0.3590   15.9994
464  OZ  1  FRM  OZ  464   -0.3590   15.9994
465  OZ  1  FRM  OZ  465   -0.3590   15.9994
466  OZ  1  FRM  OZ  466   -0.3590   15.9994
467  OZ  1  FRM  OZ  467   -0.3590   15.9994
468  OZ  1  FRM  OZ  468   -0.3590   15.9994
469  OZ  1  FRM  OZ  469   -0.3590   15.9994
470  OZ  1  FRM  OZ  470   -0.3590   15.9994
471  OZ  1  FRM  OZ  471   -0.3590   15.9994
472  OZ  1  FRM  OZ  472   -0.3590   15.9994
473  OZ  1  FRM  OZ  473   -0.3590   15.9994
474  OZ  1  FRM  OZ  474   -0.3590   15.9994
475  OZ  1  FRM  OZ  475   -0.3590   15.9994
476  OZ  1  FRM  OZ  476   -0.3590   15.9994
477  OZ  1  FRM  OZ  477   -0.3590   15.9994
478  OZ  1  FRM  OZ  478   -0.3590   15.9994
479  OZ  1  FRM  OZ  479   -0.3590   15.9994
480  OZ  1  FRM  OZ  480   -0.3590   15.9994
481  OZ  1  FRM  OZ  481   -0.3590   15.9994
482  OZ  1  FRM  OZ  482   -0.3590   15.9994
483  OZ  1  FRM  OZ  483   -0.3590   15.9994
484  OZ  1  FRM  OZ  484   -0.3590   15.9994
485  OZ  1  FRM  OZ  485   -0.3590   15.9994
486  OZ  1  FRM  OZ  486   -0.3590   15.9994
487  OZ  1  FRM  OZ  487   -0.3590   15.9994
488  OZ  1  FRM  OZ  488   -0.3590   15.9994
489  OZ  1  FRM  OZ  489   -0.3590   15.9994
490  OZ  1  FRM  OZ  490   -0.3590   15.9994
491  OZ  1  FRM  OZ  491   -0.3590   15.9994
492  OZ  1  FRM  OZ  492   -0.3590   15.9994
493  OZ  1  FRM  OZ  493   -0.3590   15.9994
494  OZ  1  FRM  OZ  494   -0.3590   15.9994
495  OZ  1  FRM  OZ  495   -0.3590   15.9994
496  OZ  1  FRM  OZ  496   -0.3590   15.9994
497  OZ  1  FRM  OZ  497   -0.3590   15.9994
498  OZ  1  FRM  OZ  498   -0.3590   15.9994
499  OZ  1  FRM  OZ  499   -0.3590   15.9994
500  OZ  1  FRM  OZ  500   -0.3590   15.9994
501  OZ  1  FRM  OZ  501   -0.3590   15.9994
502  OZ  1  FRM  OZ  502   -0.3590   15.9994
503  OZ  1  FRM  OZ  503   -0.3590   15.9994
504  OZ  1  FRM  OZ  504   -0.3590   15.9994
505  OZ  1  FRM  OZ  505   -0.3590   15.9994
506  OZ  1  FRM  OZ  506   -0.3590   15.9994
507  OZ  1  FRM  OZ  507   -0.3590   15.9994
508  OZ  1  FRM  OZ  508   -0.3590   15.9994
509  OZ  1  FRM  OZ  509   -0.3590   15.9994
510  OZ  1  FRM  OZ  510   -0.3590   15.9994
511  OZ  1  FRM  OZ  511   -0.3590   15.9994
512  OZ  1  FRM  OZ  512   -0.3590   15.9994
513  OZ  1  FRM  OZ  513   -0.3590   15.9994
514  OZ  1  FRM  OZ  514   -0.3590   15.9994
515  OZ  1  FRM  OZ  515   -0.3590   15.9994
516  OZ  1  FRM  OZ  516   -0.3590   15.9994
517  OZ  1  FRM  OZ  517   -0.3590   15.9994
518  OZ  1  FRM  OZ  518   -0.3590   15.9994
519  OZ  1  FRM  OZ  519   -0.3590   15.9994
520  OZ  1  FRM  OZ  520   -0.3590   15.9994
521  OZ  1  FRM  OZ  521   -0.3590   15.9994
522  OZ  1  FRM  OZ  522   -0.3590   15.9994
523  OZ  1  FRM  OZ  523   -0.3590   15.9994
524  OZ  1  FRM  OZ  524   -0.3590   15.9994
525  OZ  1  FRM  OZ  525   -0.3590   15.9994
526  OZ  1  FRM  OZ  526   -0.3590   15.9994
527  OZ  1  FRM  OZ  527   -0.3590   15.9994
528  OZ  1  FRM  OZ  528   -0.3590   15.9994
529  OZ  1  FRM  OZ  529   -0.3590   15.9994
530  OZ  1  FRM  OZ  530   -0.3590   15.9994
531  OZ  1  FRM  OZ  531   -0.3590   15.9994
532  OZ  1  FRM  OZ  532   -0.3590   15.9994
533  OZ  1  FRM  OZ  533   -0.3590   15.9994
534  OZ  1  FRM  OZ  534   -0.3590   15.9994
535  OZ  1  FRM  OZ  535   -0.3590   15.9994
536  OZ  1  FRM  OZ  536   -0.3590   15.9994
537  OZ  1  FRM  OZ  537   -0.3590   15.9994
538  OZ  1  FRM  OZ  538   -0.3590   15.9994
539  OZ  1  FRM  OZ  539   -0.3590   15.9994
540  OZ  1  FRM  OZ  540   -0.3590   15.9994
541  OZ  1  FRM  OZ  541   -0.3590   15.9994
542  OZ  1  FRM  OZ  542   -0.3590   15.9994
543  OZ  1  FRM  OZ  543   -0.3590   15.9994
544  OZ  1  FRM  OZ  544   -0.3590   15.9994
545  OZ  1  FRM  OZ  545   -0.3590   15.9994
546  OZ  1  FRM  OZ  546   -0.3590   15.9994
547  OZ  1  FRM  OZ  547   -0.3590   15.9994
548  OZ  1  FRM  OZ  548   -0.3590   15.9994
549  OZ  1  FRM  OZ  549   -0.3590   15.9994
550  OZ  1  FRM  OZ  550   -0.3590   15.9994
551  OZ  1  FRM  OZ  551   -0.3590   15.9994
552  OZ  1  FRM  OZ  552   -0.3590   15.9994
553  OZ  1  FRM  OZ  553   -0.3590   15.9994
554  OZ  1  FRM  OZ  554   -0.3590   15.9994
555  OZ  1  FRM  OZ  555   -0.3590   15.9994
556  OZ  1  FRM  OZ  556   -0.3590   15.9994
557  OZ  1  FRM  OZ  557   -0.3590   15.9994
558  OZ  1  FRM  OZ  558   -0.3590   15.9994
559  OZ  1  FRM  OZ  559   -0.3590   15.9994
560  OZ  1  FRM  OZ  560   -0.3590   15.9994
561  OZ  1  FRM  OZ  561   -0.3590   15.9994
562  OZ  1  FRM  OZ  562   -0.3590   15.9994
563  OZ  1  FRM  OZ  563   -0.3590   15.9994
564  OZ  1  FRM  OZ  564   -0.3590   15.9994
565  OZ  1  FRM  OZ  565   -0.3590   15.9994
566  OZ  1  FRM  OZ  566   -0.3590   15.9994
567  OZ  1  FRM  OZ  567   -0.3590   15.9994
568  OZ  1  FRM  OZ  568   -0.3590   15.9994
569  OZ  1  FRM  OZ  569   -0.3590   15.9994
570  OZ  1  FRM  OZ  570   -0.3590   15.9994
571  OZ  1  FRM  OZ  571   -0.3590   15.9994
572  OZ  1  FRM  OZ  572   -0.3590   15.9994
573  OZ  1  FRM  OZ  573   -0.3590   15.9994
574  OZ  1  FRM  OZ  574   -0.3590   15.9994
575  OZ  1  FRM  OZ  575   -0.3590   15.9994
576  OZ  1  FRM  OZ  576   -0.3590   15.9994
577  CR  1  FRM  CR  577    1.3890   51.9961
578  CR  1  FRM  CR  578    1.3890   51.9961
579  CR  1  FRM  CR  579    1.3890   51.9961
580  CR  1  FRM  CR  580    1.3890   51.9961
581  CR  1  FRM  CR  581    1.3890   51.9961
582  CR  1  FRM  CR  582    1.3890   51.9961
583  CR  1  FRM  CR  583    1.3890   51.9961
584  CR  1  FRM  CR  584    1.3890   51.9961
585  CR  1  FRM  CR  585    1.3890   51.9961
586  CR  1  FRM  CR  586    1.3890   51.9961
587  CR  1  FRM  CR  587    1.3890   51.9961
588  CR  1  FRM  CR  588    1.3890   51.9961
589  CR  1  FRM  CR  589    1.3890   51.9961
590  CR  1  FRM  CR  590    1.3890   51.9961
591  CR  1  FRM  CR  591    1.3890   51.9961
592  CR  1  FRM  CR  592    1.3890   51.9961
593  CR  1  FRM  CR  593    1.3890   51.9961
594  CR  1  FRM  CR  594    1.3890   51.9961
595  CR  1  FRM  CR  595    1.3890   51.9961
596  CR  1  FRM  CR  596    1.3890   51.9961
597  CR  1  FRM  CR  597    1.3890   51.9961
598  CR  1  FRM  CR  598    1.3890   51.9961
599  CR  1  FRM  CR  599    1.3890   51.9961
600  CR  1  FRM  CR  600    1.3890   51.9961
601  CR  1  FRM  CR  601    1.3890   51.9961
602  CR  1  FRM  CR  602    1.3890   51.9961
603  CR  1  FRM  CR  603    1.3890   51.9961
604  CR  1  FRM  CR  604    1.3890   51.9961
605  CR  1  FRM  CR  605    1.3890   51.9961
606  CR  1  FRM  CR  606    1.3890   51.9961
607  CR  1  FRM  CR  607    1.3890   51.9961
608  CR  1  FRM  CR  608    1.3890   51.9961

[ moleculetype ]
; name  nrexcl
CO2  2

[ atoms ]
1  CX  1  CO2  C  1    0.6512   12.0110
2  OX  1  CO2  O  2   -0.3256   15.9994
3  OX  1  CO2  O  3   -0.3256   15.9994

[ bonds ]
; ai aj func  b0(nm)  kb
1 2 1 0.116 400000.0
1 3 1 0.116 400000.0

[ angles ]
; ai aj ak func  th0  k
2 1 3 1 180.0 1000.0

[ system ]
Cr zeolite with CO2

[ molecules ]
FRM  1
CO2  15
