Fe zeolite with CO2
  669
    1FRM     SI    1   2.305   0.305   0.089 -0.0000  0.0000  0.0000
    1FRM     SI    2   2.305   1.522   1.306 -0.0000 -0.0000  0.0000
    1FRM     SI    3   1.088   1.522   0.089  0.0000  0.0000  0.0000
    1FRM     SI    4   1.088   0.305   1.306  0.0000  0.0000  0.0000
    1FRM     SI    5   0.089   2.305   0.305  0.0000 -0.0000 -0.0000
    1FRM     SI    6   0.089   1.088   1.522  0.0000  0.0000  0.0000
    1FRM     SI    7   1.306   1.088   0.305  0.0000  0.0000  0.0000
    1FRM     SI    8   1.306   2.305   1.522  0.0000  0.0000  0.0000
    1FRM     SI    9   0.305   0.089   2.305  0.0000  0.0000  0.0000
    1FRM     SI   10   0.305   1.306   1.088 -0.0000  0.0000  0.0000
    1FRM     SI   11   1.522   1.306   2.305  0.0000  0.0000  0.0000
    1FRM     SI   12   1.522   0.089   1.088  0.0000  0.0000  0.0000
    1FRM     SI   13   0.129   0.913   0.697 -0.0000 -0.0000 -0.0000
    1FRM     SI   14   0.129   2.130   1.914 -0.0000  0.0000 -0.0000
    1FRM     SI   15   1.347   2.130   0.697 -0.0000  0.0000 -0.0000
    1FRM     SI   16   1.347   0.913   1.914 -0.0000  0.0000 -0.0000
    1FRM     SI   17   2.346   0.479   0.913 -0.0000 -0.0000  0.0000
    1FRM     SI   18   2.346   1.697   2.130 -0.0000 -0.0000  0.0000
    1FRM     SI   19   1.129   1.697   0.913 -0.0000 -0.0000  0.0000
    1FRM     SI   20   1.129   0.479   2.130 -0.0000 -0.0000 -0.0000
    1FRM     SI   21   2.130   0.697   0.479 -0.0000  0.0000  0.0000
    1FRM     SI   22   2.130   1.914   1.697 -0.0000  0.0000  0.0000
    1FRM     SI   23   0.913   1.914   0.479 -0.0000  0.0000  0.0000
    1FRM     SI   24   0.913   0.697   1.697 -0.0000 -0.0000  0.0000
    1FRM     SI   25   0.479   2.130   0.697  0.0000 -0.0000  0.0000
    1FRM     SI   26   0.479   0.913   1.914  0.0000 -0.0000  0.0000
    1FRM     SI   27   1.697   0.913   0.697  0.0000 -0.0000  0.0000
    1FRM     SI   28   1.697   2.130   1.914  0.0000 -0.0000  0.0000
    1FRM     SI   29   0.697   0.129   0.913  0.0000 -0.0000 -0.0000
    1FRM     SI   30   0.697   1.347   2.130 -0.0000 -0.0000  0.0000
    1FRM     SI   31   1.914   1.347   0.913 -0.0000 -0.0000  0.0000
    1FRM     SI   32   1.914   0.129   2.130 -0.0000 -0.0000 -0.0000
    1FRM     SI   33   0.913   2.346   0.479 -0.0000 -0.0000 -0.0000
    1FRM     SI   34   0.913   1.129   1.697  0.0000 -0.0000 -0.0000
    1FRM     SI   35   2.130   1.129   0.479  0.0000 -0.0000 -0.0000
    1FRM     SI   36   2.130   2.346   1.697 -0.0000 -0.0000 -0.0000
    1FRM     SI   37   0.738   1.521   1.306  0.0000 -0.0000 -0.0000
    1FRM     SI   38   0.738   0.304   0.089  0.0000 -0.0000 -0.0000
    1FRM     SI   39   1.955   0.304   1.306  0.0000  0.0000 -0.0000
    1FRM     SI   40   1.955   1.521   0.089  0.0000 -0.0000 -0.0000
    1FRM     SI   41   0.520   1.955   1.522 -0.0000  0.0000 -0.0000
    1FRM     SI   42   0.520   0.738   0.305 -0.0000  0.0000 -0.0000
    1FRM     SI   43   1.737   0.738   1.522 -0.0000  0.0000 -0.0000
    1FRM     SI   44   1.737   1.955   0.305 -0.0000  0.0000 -0.0000
    1FRM     SI   45   0.304   1.737   1.088 -0.0000  0.0000 -0.0000
    1FRM     SI   46   0.304   0.520   2.305 -0.0000  0.0000 -0.0000
    1FRM     SI   47   1.521   0.520   1.088  0.0000  0.0000  0.0000
    1FRM     SI   48   1.521   1.737   2.305  0.0000  0.0000 -0.0000
    1FRM     AL   49   0.305   2.305   0.089 -0.0000  0.0000  0.0000
    1FRM     AL   50   0.305   1.088   1.306  0.0000 -0.0000 -0.0000
    1FRM     AL   51   1.522   1.088   0.089  0.0000  0.0000  0.0000
    1FRM     AL   52   1.522   2.305   1.306 -0.0000  0.0000  0.0000
    1FRM     AL   53   2.305   0.089   0.305 -0.0000  0.0000  0.0000
    1FRM     AL   54   2.305   1.306   1.522 -0.0000  0.0000  0.0000
    1FRM     AL   55   1.088   1.306   0.305  0.0000  0.0000  0.0000
    1FRM     AL   56   1.088   0.089   1.522  0.0000  0.0000  0.0000
    1FRM     AL   57   0.089   0.305   2.305  0.0000  0.0000  0.0000
    1FRM     AL   58   0.089   1.522   1.088  0.0000 -0.0000 -0.0000
    1FRM     AL   59   1.306   1.522   2.305  0.0000  0.0000  0.0000
    1FRM     AL   60   1.306   0.305   1.088  0.0000  0.0000  0.0000
    1FRM     AL   61   0.913   0.129   0.697 -0.0000 -0.0000 -0.0000
    1FRM     AL   62   0.913   1.347   1.914  0.0000  0.0000 -0.0000
    1FRM     AL   63   2.130   1.347   0.697  0.0000  0.0000 -0.0000
    1FRM     AL   64   2.130   0.129   1.914 -0.0000 -0.0000 -0.0000
    1FRM     AL   65   0.479   2.346   0.913 -0.0000 -0.0000 -0.0000
    1FRM     AL   66   0.479   1.129   2.130 -0.0000 -0.0000 -0.0000
    1FRM     AL   67   1.697   1.129   0.913 -0.0000 -0.0000  0.0000
    1FRM     AL   68   1.697   2.346   2.130 -0.0000 -0.0000 -0.0000
    1FRM     AL   69   0.697   2.130   0.479  0.0000 -0.0000  0.0000
    1FRM     AL   70   0.697   0.913   1.697  0.0000 -0.0000  0.0000
    1FRM     AL   71   1.914   0.913   0.479  0.0000 -0.0000  0.0000
    1FRM     AL   72   1.914   2.130   1.697 -0.0000 -0.0000  0.0000
    1FRM     AL   73   2.130   0.479   0.697 -0.0000  0.0000  0.0000
    1FRM     AL   74   2.130   1.697   1.914 -0.0000  0.0000  0.0000
    1FRM     AL   75   0.913   1.697   0.697 -0.0000  0.0000  0.0000
    1FRM     AL   76   0.913   0.479   1.914  0.0000  0.0000 -0.0000
    1FRM     AL   77   0.129   0.697   0.913 -0.0000 -0.0000 -0.0000
    1FRM     AL   78   0.129   1.914   2.130  0.0000 -0.0000  0.0000
    1FRM     AL   79   1.347   1.914   0.913  0.0000 -0.0000  0.0000
    1FRM     AL   80   1.347   0.697   2.130  0.0000 -0.0000  0.0000
    1FRM     AL   81   2.346   0.913   0.479 -0.0000  0.0000  0.0000
    1FRM     AL   82   2.346   2.130   1.697 -0.0000  0.0000 -0.0000
    1FRM     AL   83   1.129   2.130   0.479 -0.0000  0.0000 -0.0000
    1FRM     AL   84   1.129   0.913   1.697 -0.0000 -0.0000 -0.0000
    1FRM     AL   85   1.521   0.738   1.306 -0.0000 -0.0000 -0.0000
    1FRM     AL   86   1.521   1.955   0.089  0.0000  0.0000 -0.0000
    1FRM     AL   87   0.304   1.955   1.306 -0.0000  0.0000 -0.0000
    1FRM     AL   88   0.304   0.738   0.089 -0.0000  0.0000 -0.0000
    1FRM     AL   89   1.955   0.520   1.522  0.0000 -0.0000 -0.0000
    1FRM     AL   90   1.955   1.737   0.305  0.0000 -0.0000 -0.0000
    1FRM     AL   91   0.738   1.737   1.522  0.0000 -0.0000 -0.0000
    1FRM     AL   92   0.738   0.520   0.305  0.0000 -0.0000 -0.0000
    1FRM     AL   93   1.737   0.304   1.088  0.0000  0.0000 -0.0000
    1FRM     AL   94   1.737   1.521   2.305  0.0000  0.0000 -0.0000
    1FRM     AL   95   0.520   1.521   1.088  0.0000 -0.0000 -0.0000
    1FRM     AL   96   0.520   0.304   2.305  0.0000 -0.0000 -0.0000
    1FRM     SI   97   0.129   2.130   2.346 -0.0000  0.0000  0.0000
    1FRM     SI   98   0.129   0.913   1.129 -0.0000  0.0000  0.0000
    1FRM     SI   99   1.347   0.913   2.346 -0.0000  0.0000  0.0000
    1FRM     SI  100   1.347   2.130   1.129 -0.0000  0.0000  0.0000
    1FRM     SI  101   2.346   0.129   2.130  0.0000 -0.0000 -0.0000
    1FRM     SI  102   2.346   1.347   0.913  0.0000 -0.0000 -0.0000
    1FRM     SI  103   1.129   1.347   2.130  0.0000 -0.0000  0.0000
    1FRM     SI  104   1.129   0.129   0.913  0.0000 -0.0000  0.0000
    1FRM     SI  105   2.130   2.346   0.129  0.0000  0.0000 -0.0000
    1FRM     SI  106   2.130   1.129   1.347 -0.0000  0.0000 -0.0000
    1FRM     SI  107   0.913   1.129   0.129 -0.0000  0.0000 -0.0000
    1FRM     SI  108   0.913   2.346   1.347 -0.0000  0.0000 -0.0000
    1FRM     SI  109   2.305   1.521   1.737 -0.0000 -0.0000  0.0000
    1FRM     SI  110   2.305   0.304   0.520 -0.0000  0.0000  0.0000
    1FRM     SI  111   1.088   0.304   1.737  0.0000  0.0000  0.0000
    1FRM     SI  112   1.088   1.521   0.520 -0.0000  0.0000  0.0000
    1FRM     SI  113   0.089   1.955   1.521 -0.0000  0.0000 -0.0000
    1FRM     SI  114   0.089   0.738   0.304 -0.0000  0.0000 -0.0000
    1FRM     SI  115   1.306   0.738   1.521 -0.0000 -0.0000 -0.0000
    1FRM     SI  116   1.306   1.955   0.304 -0.0000  0.0000 -0.0000
    1FRM     SI  117   0.305   1.737   1.955 -0.0000 -0.0000  0.0000
    1FRM     SI  118   0.305   0.520   0.738 -0.0000  0.0000  0.0000
    1FRM     SI  119   1.522   0.520   1.955 -0.0000 -0.0000  0.0000
    1FRM     SI  120   1.522   1.737   0.738 -0.0000 -0.0000  0.0000
    1FRM     SI  121   1.955   0.305   1.737  0.0000 -0.0000 -0.0000
    1FRM     SI  122   1.955   1.522   0.520  0.0000 -0.0000 -0.0000
    1FRM     SI  123   0.738   1.522   1.737  0.0000 -0.0000 -0.0000
    1FRM     SI  124   0.738   0.305   0.520  0.0000 -0.0000 -0.0000
    1FRM     SI  125   1.737   2.305   1.521  0.0000 -0.0000  0.0000
    1FRM     SI  126   1.737   1.088   0.304  0.0000 -0.0000 -0.0000
    1FRM     SI  127   0.520   1.088   1.521  0.0000 -0.0000 -0.0000
    1FRM     SI  128   0.520   2.305   0.304  0.0000 -0.0000 -0.0000
    1FRM     SI  129   1.521   0.089   1.955 -0.0000 -0.0000 -0.0000
    1FRM     SI  130   1.521   1.306   0.738 -0.0000 -0.0000  0.0000
    1FRM     SI  131   0.304   1.306   1.955 -0.0000 -0.0000  0.0000
    1FRM     SI  132   0.304   0.089   0.738 -0.0000 -0.0000  0.0000
    1FRM     SI  133   1.697   0.913   1.129 -0.0000 -0.0000 -0.0000
    1FRM     SI  134   1.697   2.130   2.346 -0.0000 -0.0000 -0.0000
    1FRM     SI  135   0.479   2.130   1.129 -0.0000 -0.0000 -0.0000
    1FRM     SI  136   0.479   0.913   2.346 -0.0000  0.0000 -0.0000
    1FRM     SI  137   1.914   0.479   0.913  0.0000  0.0000  0.0000
    1FRM     SI  138   1.914   1.697   2.130 -0.0000  0.0000 -0.0000
    1FRM     SI  139   0.697   1.697   0.913  0.0000  0.0000 -0.0000
    1FRM     SI  140   0.697   0.479   2.130  0.0000  0.0000 -0.0000
    1FRM     SI  141   2.130   0.697   1.347 -0.0000 -0.0000 -0.0000
    1FRM     SI  142   2.130   1.914   0.129 -0.0000 -0.0000 -0.0000
    1FRM     SI  143   0.913   1.914   1.347 -0.0000 -0.0000 -0.0000
    1FRM     SI  144   0.913   0.697   0.129  0.0000 -0.0000 -0.0000
    1FRM     AL  145   2.130   0.129   2.346 -0.0000 -0.0000  0.0000
    1FRM     AL  146   2.130   1.347   1.129 -0.0000 -0.0000  0.0000
    1FRM     AL  147   0.913   1.347   2.346  0.0000 -0.0000  0.0000
    1FRM     AL  148   0.913   0.129   1.129  0.0000 -0.0000  0.0000
    1FRM     AL  149   0.129   2.346   2.130 -0.0000  0.0000  0.0000
    1FRM     AL  150   0.129   1.129   0.913 -0.0000  0.0000  0.0000
    1FRM     AL  151   1.347   1.129   2.130 -0.0000  0.0000  0.0000
    1FRM     AL  152   1.347   2.346   0.913 -0.0000  0.0000  0.0000
    1FRM     AL  153   2.346   2.130   0.129  0.0000  0.0000 -0.0000
    1FRM     AL  154   2.346   0.913   1.347  0.0000 -0.0000 -0.0000
    1FRM     AL  155   1.129   0.913   0.129  0.0000 -0.0000 -0.0000
    1FRM     AL  156   1.129   2.130   1.347  0.0000 -0.0000  0.0000
    1FRM     AL  157   1.521   2.305   1.737  0.0000  0.0000  0.0000
    1FRM     AL  158   1.521   1.088   0.520  0.0000 -0.0000  0.0000
    1FRM     AL  159   0.304   1.088   1.737 -0.0000 -0.0000  0.0000
    1FRM     AL  160   0.304   2.305   0.520 -0.0000 -0.0000  0.0000
    1FRM     AL  161   1.955   0.089   1.521  0.0000 -0.0000  0.0000
    1FRM     AL  162   1.955   1.306   0.304  0.0000 -0.0000 -0.0000
    1FRM     AL  163   0.738   1.306   1.521  0.0000 -0.0000 -0.0000
    1FRM     AL  164   0.738   0.089   0.304  0.0000 -0.0000 -0.0000
    1FRM     AL  165   1.737   0.305   1.955 -0.0000 -0.0000 -0.0000
    1FRM     AL  166   1.737   1.522   0.738 -0.0000 -0.0000  0.0000
    1FRM     AL  167   0.520   1.522   1.955 -0.0000 -0.0000  0.0000
    1FRM     AL  168   0.520   0.305   0.738 -0.0000 -0.0000  0.0000
    1FRM     AL  169   0.305   1.955   1.737 -0.0000  0.0000 -0.0000
    1FRM     AL  170   0.305   0.738   0.520 -0.0000  0.0000  0.0000
    1FRM     AL  171   1.522   0.738   1.737 -0.0000  0.0000 -0.0000
    1FRM     AL  172   1.522   1.955   0.520 -0.0000  0.0000 -0.0000
    1FRM     AL  173   2.305   1.737   1.521 -0.0000  0.0000 -0.0000
    1FRM     AL  174   2.305   0.520   0.304 -0.0000  0.0000 -0.0000
    1FRM     AL  175   1.088   0.520   1.521  0.0000  0.0000  0.0000
    1FRM     AL  176   1.088   1.737   0.304 -0.0000  0.0000 -0.0000
    1FRM     AL  177   0.089   1.521   1.955 -0.0000 -0.0000  0.0000
    1FRM     AL  178   0.089   0.304   0.738 -0.0000  0.0000  0.0000
    1FRM     AL  179   1.306   0.304   1.955 -0.0000 -0.0000 -0.0000
    1FRM     AL  180   1.306   1.521   0.738 -0.0000 -0.0000  0.0000
    1FRM     AL  181   0.913   1.697   1.129 -0.0000 -0.0000 -0.0000
    1FRM     AL  182   0.913   0.479   2.346  0.0000 -0.0000 -0.0000
    1FRM     AL  183   2.130   0.479   1.129 -0.0000  0.0000 -0.0000
    1FRM     AL  184   2.130   1.697   2.346 -0.0000 -0.0000 -0.0000
    1FRM     AL  185   0.479   1.914   0.913  0.0000  0.0000 -0.0000
    1FRM     AL  186   0.479   0.697   2.130  0.0000  0.0000 -0.0000
    1FRM     AL  187   1.697   0.697   0.913  0.0000  0.0000  0.0000
    1FRM     AL  188   1.697   1.914   2.130  0.0000  0.0000 -0.0000
    1FRM     AL  189   0.697   2.130   1.347 -0.0000 -0.0000 -0.0000
    1FRM     AL  190   0.697   0.913   0.129 -0.0000  0.0000  0.0000
    1FRM     AL  191   1.914   0.913   1.347 -0.0000 -0.0000 -0.0000
    1FRM     AL  192   1.914   2.130   0.129 -0.0000 -0.0000 -0.0000
    1FRM     OZ  193   2.181   0.254   0.000  0.0000 -0.0000 -0.0000
    1FRM     OZ  194   2.181   1.471   1.217 -0.0000 -0.0000 -0.0000
    1FRM     OZ  195   0.964   1.471   0.000 -0.0000 -0.0000 -0.0000
    1FRM     OZ  196   0.964   0.254   1.217 -0.0000 -0.0000 -0.0000
    1FRM     OZ  197   0.000   2.181   0.254 -0.0000 -0.0000 -0.0000
    1FRM     OZ  198   0.000   0.964   1.471 -0.0000 -0.0000 -0.0000
    1FRM     OZ  199   1.217   0.964   0.254 -0.0000 -0.0000 -0.0000
    1FRM     OZ  200   1.217   2.181   1.471 -0.0000  0.0000 -0.0000
    1FRM     OZ  201   0.254   0.000   2.181 -0.0000 -0.0000 -0.0000
    1FRM     OZ  202   0.254   1.217   0.964 -0.0000 -0.0000 -0.0000
    1FRM     OZ  203   1.471   1.217   2.181 -0.0000 -0.0000 -0.0000
    1FRM     OZ  204   1.471   0.000   0.964 -0.0000 -0.0000 -0.0000
    1FRM     OZ  205   0.254   0.862   0.609  0.0000 -0.0000 -0.0000
    1FRM     OZ  206   0.254   2.080   1.826  0.0000 -0.0000  0.0000
    1FRM     OZ  207   1.471   2.080   0.609  0.0000 -0.0000  0.0000
    1FRM     OZ  208   1.471   0.862   1.826  0.0000 -0.0000  0.0000
    1FRM     OZ  209   0.000   0.355   0.862  0.0000 -0.0000 -0.0000
    1FRM     OZ  210   0.000   1.572   2.080  0.0000  0.0000 -0.0000
    1FRM     OZ  211   1.217   1.572   0.862  0.0000  0.0000 -0.0000
    1FRM     OZ  212   1.217   0.355   2.080  0.0000  0.0000 -0.0000
    1FRM     OZ  213   2.181   0.609   0.355  0.0000 -0.0000 -0.0000
    1FRM     OZ  214   2.181   1.826   1.572  0.0000 -0.0000 -0.0000
    1FRM     OZ  215   0.964   1.826   0.355  0.0000 -0.0000 -0.0000
    1FRM     OZ  216   0.964   0.609   1.572  0.0000 -0.0000 -0.0000
    1FRM     OZ  217   0.355   2.181   0.609 -0.0000  0.0000 -0.0000
    1FRM     OZ  218   0.355   0.964   1.826 -0.0000  0.0000 -0.0000
    1FRM     OZ  219   1.572   0.964   0.609 -0.0000  0.0000 -0.0000
    1FRM     OZ  220   1.572   2.181   1.826 -0.0000  0.0000 -0.0000
    1FRM     OZ  221   0.609   0.254   0.862  0.0000 -0.0000  0.0000
    1FRM     OZ  222   0.609   1.471   2.080  0.0000  0.0000 -0.0000
    1FRM     OZ  223   1.826   1.471   0.862 -0.0000  0.0000 -0.0000
    1FRM     OZ  224   1.826   0.254   2.080  0.0000 -0.0000  0.0000
    1FRM     OZ  225   0.862   0.000   0.355 -0.0000  0.0000 -0.0000
    1FRM     OZ  226   0.862   1.217   1.572 -0.0000  0.0000  0.0000
    1FRM     OZ  227   2.080   1.217   0.355 -0.0000  0.0000 -0.0000
    1FRM     OZ  228   2.080   0.000   1.572 -0.0000  0.0000 -0.0000
    1FRM     OZ  229   0.862   1.572   1.217  0.0000  0.0000 -0.0000
    1FRM     OZ  230   0.862   0.355   0.000 -0.0000  0.0000 -0.0000
    1FRM     OZ  231   2.080   0.355   1.217  0.0000  0.0000 -0.0000
    1FRM     OZ  232   2.080   1.572   0.000  0.0000  0.0000 -0.0000
    1FRM     OZ  233   0.609   2.080   1.471  0.0000  0.0000 -0.0000
    1FRM     OZ  234   0.609   0.862   0.254  0.0000  0.0000 -0.0000
    1FRM     OZ  235   1.826   0.862   1.471  0.0000  0.0000 -0.0000
    1FRM     OZ  236   1.826   2.080   0.254  0.0000  0.0000 -0.0000
    1FRM     OZ  237   0.355   1.826   0.964  0.0000  0.0000  0.0000
    1FRM     OZ  238   0.355   0.609   2.181  0.0000  0.0000  0.0000
    1FRM     OZ  239   1.572   0.609   0.964  0.0000  0.0000 -0.0000
    1FRM     OZ  240   1.572   1.826   2.181  0.0000  0.0000 -0.0000
    1FRM     OZ  241   0.254   2.181   0.000  0.0000  0.0000 -0.0000
    1FRM     OZ  242   0.254   0.964   1.217  0.0000  0.0000  0.0000
    1FRM     OZ  243   1.471   0.964   0.000  0.0000  0.0000  0.0000
    1FRM     OZ  244   1.471   2.181   1.217  0.0000  0.0000 -0.0000
    1FRM     OZ  245   2.181   0.000   0.254  0.0000  0.0000  0.0000
    1FRM     OZ  246   2.181   1.217   1.471  0.0000 -0.0000 -0.0000
    1FRM     OZ  247   0.964   1.217   0.254  0.0000 -0.0000  0.0000
    1FRM     OZ  248   0.964   0.000   1.471  0.0000 -0.0000 -0.0000
    1FRM     OZ  249   0.000   0.254   2.181 -0.0000  0.0000  0.0000
    1FRM     OZ  250   0.000   1.471   0.964  0.0000  0.0000  0.0000
    1FRM     OZ  251   1.217   1.471   2.181 -0.0000  0.0000  0.0000
    1FRM     OZ  252   1.217   0.254   0.964 -0.0000  0.0000  0.0000
    1FRM     OZ  253   0.862   0.254   0.609  0.0000 -0.0000  0.0000
    1FRM     OZ  254   0.862   1.471   1.826  0.0000 -0.0000  0.0000
    1FRM     OZ  255   2.080   1.471   0.609 -0.0000 -0.0000  0.0000
    1FRM     OZ  256   2.080   0.254   1.826  0.0000 -0.0000  0.0000
    1FRM     OZ  257   0.355   0.000   0.862  0.0000 -0.0000  0.0000
    1FRM     OZ  258   0.355   1.217   2.080  0.0000 -0.0000  0.0000
    1FRM     OZ  259   1.572   1.217   0.862  0.0000 -0.0000 -0.0000
    1FRM     OZ  260   1.572   0.000   2.080  0.0000 -0.0000  0.0000
    1FRM     OZ  261   0.609   2.181   0.355  0.0000 -0.0000  0.0000
    1FRM     OZ  262   0.609   0.964   1.572  0.0000  0.0000  0.0000
    1FRM     OZ  263   1.826   0.964   0.355  0.0000 -0.0000  0.0000
    1FRM     OZ  264   1.826   2.181   1.572  0.0000 -0.0000  0.0000
    1FRM     OZ  265   2.181   0.355   0.609  0.0000  0.0000  0.0000
    1FRM     OZ  266   2.181   1.572   1.826  0.0000  0.0000  0.0000
    1FRM     OZ  267   0.964   1.572   0.609 -0.0000  0.0000  0.0000
    1FRM     OZ  268   0.964   0.355   1.826 -0.0000  0.0000  0.0000
    1FRM     OZ  269   0.254   0.609   0.862 -0.0000  0.0000  0.0000
    1FRM     OZ  270   0.254   1.826   2.080 -0.0000  0.0000  0.0000
    1FRM     OZ  271   1.471   1.826   0.862 -0.0000  0.0000  0.0000
    1FRM     OZ  272   1.471   0.609   2.080 -0.0000  0.0000  0.0000
    1FRM     OZ  273   0.000   0.862   0.355 -0.0000 -0.0000  0.0000
    1FRM     OZ  274   0.000   2.080   1.572 -0.0000 -0.0000  0.0000
    1FRM     OZ  275   1.217   2.080   0.355 -0.0000  0.0000  0.0000
    1FRM     OZ  276   1.217   0.862   1.572 -0.0000  0.0000  0.0000
    1FRM     OZ  277   1.572   0.862   1.217 -0.0000 -0.0000  0.0000
    1FRM     OZ  278   1.572   2.080   0.000 -0.0000 -0.0000  0.0000
    1FRM     OZ  279   0.355   2.080   1.217 -0.0000 -0.0000  0.0000
    1FRM     OZ  280   0.355   0.862   0.000  0.0000 -0.0000  0.0000
    1FRM     OZ  281   2.080   0.609   1.471 -0.0000 -0.0000  0.0000
    1FRM     OZ  282   2.080   1.826   0.254  0.0000  0.0000 -0.0000
    1FRM     OZ  283   0.862   1.826   1.471  0.0000  0.0000 -0.0000
    1FRM     OZ  284   0.862   0.609   0.254 -0.0000  0.0000  0.0000
    1FRM     OZ  285   1.826   0.355   0.964 -0.0000 -0.0000  0.0000
    1FRM     OZ  286   1.826   1.572   2.181 -0.0000 -0.0000  0.0000
    1FRM     OZ  287   0.609   1.572   0.964 -0.0000 -0.0000  0.0000
    1FRM     OZ  288   0.609   0.355   2.181 -0.0000 -0.0000  0.0000
    1FRM     OZ  289   2.354   0.186   0.186 -0.0000 -0.0000  0.0000
    1FRM     OZ  290   2.354   1.403   1.403 -0.0000 -0.0000  0.0000
    1FRM     OZ  291   1.137   1.403   0.186 -0.0000 -0.0000  0.0000
    1FRM     OZ  292   1.137   0.186   1.403 -0.0000 -0.0000  0.0000
    1FRM     OZ  293   0.186   2.354   0.186  0.0000 -0.0000 -0.0000
    1FRM     OZ  294   0.186   1.137   1.403  0.0000 -0.0000 -0.0000
    1FRM     OZ  295   1.403   1.137   0.186  0.0000 -0.0000 -0.0000
    1FRM     OZ  296   1.403   2.354   1.403  0.0000 -0.0000 -0.0000
    1FRM     OZ  297   0.186   0.186   2.354 -0.0000  0.0000 -0.0000
    1FRM     OZ  298   0.186   1.403   1.137 -0.0000  0.0000 -0.0000
    1FRM     OZ  299   1.403   1.403   2.354 -0.0000  0.0000 -0.0000
    1FRM     OZ  300   1.403   0.186   1.137 -0.0000  0.0000 -0.0000
    1FRM     OZ  301   0.081   0.794   0.794  0.0000 -0.0000  0.0000
    1FRM     OZ  302   0.081   2.011   2.011  0.0000 -0.0000  0.0000
    1FRM     OZ  303   1.298   2.011   0.794  0.0000 -0.0000  0.0000
    1FRM     OZ  304   1.298   0.794   2.011  0.0000 -0.0000  0.0000
    1FRM     OZ  305   2.249   0.528   0.794 -0.0000 -0.0000 -0.0000
    1FRM     OZ  306   2.249   1.745   2.011 -0.0000 -0.0000 -0.0000
    1FRM     OZ  307   1.032   1.745   0.794 -0.0000 -0.0000 -0.0000
    1FRM     OZ  308   1.032   0.528   2.011 -0.0000 -0.0000 -0.0000
    1FRM     OZ  309   2.249   0.794   0.528  0.0000  0.0000 -0.0000
    1FRM     OZ  310   2.249   2.011   1.745  0.0000  0.0000 -0.0000
    1FRM     OZ  311   1.032   2.011   0.528  0.0000  0.0000 -0.0000
    1FRM     OZ  312   1.032   0.794   1.745  0.0000  0.0000 -0.0000
    1FRM     OZ  313   0.528   2.249   0.794 -0.0000  0.0000  0.0000
    1FRM     OZ  314   0.528   1.032   2.011 -0.0000  0.0000  0.0000
    1FRM     OZ  315   1.745   1.032   0.794 -0.0000  0.0000  0.0000
    1FRM     OZ  316   1.745   2.249   2.011 -0.0000  0.0000  0.0000
    1FRM     OZ  317   0.794   0.081   0.794  0.0000  0.0000  0.0000
    1FRM     OZ  318   0.794   1.298   2.011  0.0000  0.0000 -0.0000
    1FRM     OZ  319   2.011   1.298   0.794  0.0000  0.0000 -0.0000
    1FRM     OZ  320   2.011   0.081   2.011  0.0000  0.0000  0.0000
    1FRM     OZ  321   0.794   2.249   0.528 -0.0000 -0.0000 -0.0000
    1FRM     OZ  322   0.794   1.032   1.745 -0.0000 -0.0000 -0.0000
    1FRM     OZ  323   2.011   1.032   0.528 -0.0000 -0.0000 -0.0000
    1FRM     OZ  324   2.011   2.249   1.745 -0.0000 -0.0000 -0.0000
    1FRM     OZ  325   0.689   1.640   1.403 -0.0000  0.0000  0.0000
    1FRM     OZ  326   0.689   0.423   0.186 -0.0000  0.0000  0.0000
    1FRM     OZ  327   1.906   0.423   1.403  0.0000  0.0000  0.0000
    1FRM     OZ  328   1.906   1.640   0.186  0.0000  0.0000  0.0000
    1FRM     OZ  329   0.423   1.906   1.403 -0.0000 -0.0000 -0.0000
    1FRM     OZ  330   0.423   0.689   0.186 -0.0000 -0.0000 -0.0000
    1FRM     OZ  331   1.640   0.689   1.403 -0.0000  0.0000 -0.0000
    1FRM     OZ  332   1.640   1.906   0.186 -0.0000  0.0000  0.0000
    1FRM     OZ  333   0.423   1.640   1.137  0.0000 -0.0000  0.0000
    1FRM     OZ  334   0.423   0.423   2.354  0.0000 -0.0000  0.0000
    1FRM     OZ  335   1.640   0.423   1.137  0.0000 -0.0000 -0.0000
    1FRM     OZ  336   1.640   1.640   2.354  0.0000 -0.0000 -0.0000
    1FRM     OZ  337   0.081   2.249   2.249  0.0000  0.0000 -0.0000
    1FRM     OZ  338   0.081   1.032   1.032  0.0000  0.0000 -0.0000
    1FRM     OZ  339   1.298   1.032   2.249  0.0000  0.0000 -0.0000
    1FRM     OZ  340   1.298   2.249   1.032  0.0000  0.0000 -0.0000
    1FRM     OZ  341   2.249   0.081   2.249  0.0000  0.0000  0.0000
    1FRM     OZ  342   2.249   1.298   1.032 -0.0000  0.0000  0.0000
    1FRM     OZ  343   1.032   1.298   2.249 -0.0000  0.0000  0.0000
    1FRM     OZ  344   1.032   0.081   1.032 -0.0000  0.0000  0.0000
    1FRM     OZ  345   2.249   2.249   0.081  0.0000 -0.0000  0.0000
    1FRM     OZ  346   2.249   1.032   1.298  0.0000  0.0000  0.0000
    1FRM     OZ  347   1.032   1.032   0.081  0.0000  0.0000  0.0000
    1FRM     OZ  348   1.032   2.249   1.298  0.0000  0.0000  0.0000
    1FRM     OZ  349   2.354   1.640   1.640  0.0000  0.0000 -0.0000
    1FRM     OZ  350   2.354   0.423   0.423  0.0000  0.0000 -0.0000
    1FRM     OZ  351   1.137   0.423   1.640 -0.0000  0.0000 -0.0000
    1FRM     OZ  352   1.137   1.640   0.423  0.0000  0.0000 -0.0000
    1FRM     OZ  353   0.186   1.906   1.640  0.0000 -0.0000  0.0000
    1FRM     OZ  354   0.186   0.689   0.423  0.0000 -0.0000  0.0000
    1FRM     OZ  355   1.403   0.689   1.640  0.0000  0.0000  0.0000
    1FRM     OZ  356   1.403   1.906   0.423  0.0000 -0.0000  0.0000
    1FRM     OZ  357   0.186   1.640   1.906 -0.0000 -0.0000 -0.0000
    1FRM     OZ  358   0.186   0.423   0.689  0.0000 -0.0000 -0.0000
    1FRM     OZ  359   1.403   0.423   1.906 -0.0000 -0.0000  0.0000
    1FRM     OZ  360   1.403   1.640   0.689 -0.0000 -0.0000 -0.0000
    1FRM     OZ  361   1.906   0.186   1.640 -0.0000 -0.0000 -0.0000
    1FRM     OZ  362   1.906   1.403   0.423 -0.0000 -0.0000 -0.0000
    1FRM     OZ  363   0.689   1.403   1.640 -0.0000 -0.0000 -0.0000
    1FRM     OZ  364   0.689   0.186   0.423 -0.0000 -0.0000 -0.0000
    1FRM     OZ  365   1.640   2.354   1.640 -0.0000 -0.0000  0.0000
    1FRM     OZ  366   1.640   1.137   0.423 -0.0000  0.0000  0.0000
    1FRM     OZ  367   0.423   1.137   1.640 -0.0000  0.0000  0.0000
    1FRM     OZ  368   0.423   2.354   0.423 -0.0000  0.0000  0.0000
    1FRM     OZ  369   1.640   0.186   1.906  0.0000  0.0000  0.0000
    1FRM     OZ  370   1.640   1.403   0.689  0.0000  0.0000 -0.0000
    1FRM     OZ  371   0.423   1.403   1.906  0.0000  0.0000 -0.0000
    1FRM     OZ  372   0.423   0.186   0.689  0.0000  0.0000 -0.0000
    1FRM     OZ  373   1.745   0.794   1.032 -0.0000 -0.0000 -0.0000
    1FRM     OZ  374   1.745   2.011   2.249 -0.0000 -0.0000 -0.0000
    1FRM     OZ  375   0.528   2.011   1.032 -0.0000 -0.0000 -0.0000
    1FRM     OZ  376   0.528   0.794   2.249 -0.0000 -0.0000 -0.0000
    1FRM     OZ  377   2.011   0.528   1.032  0.0000 -0.0000  0.0000
    1FRM     OZ  378   2.011   1.745   2.249  0.0000 -0.0000  0.0000
    1FRM     OZ  379   0.794   1.745   1.032  0.0000 -0.0000  0.0000
    1FRM     OZ  380   0.794   0.528   2.249  0.0000 -0.0000  0.0000
    1FRM     OZ  381   2.011   0.794   1.298 -0.0000  0.0000  0.0000
    1FRM     OZ  382   2.011   2.011   0.081  0.0000  0.0000  0.0000
    1FRM     OZ  383   0.794   2.011   1.298  0.0000  0.0000  0.0000
    1FRM     OZ  384   0.794   0.794   0.081 -0.0000  0.0000  0.0000
    1FRM     OZ  385   2.426   0.348   2.426  0.0000 -0.0000 -0.0000
    1FRM     OZ  386   2.426   1.565   1.209  0.0000 -0.0000 -0.0000
    1FRM     OZ  387   1.209   1.565   2.426  0.0000 -0.0000 -0.0000
    1FRM     OZ  388   1.209   0.348   1.209 -0.0000 -0.0000 -0.0000
    1FRM     OZ  389   2.426   2.426   0.348 -0.0000  0.0000 -0.0000
    1FRM     OZ  390   2.426   1.209   1.565 -0.0000  0.0000 -0.0000
    1FRM     OZ  391   1.209   1.209   0.348 -0.0000  0.0000 -0.0000
    1FRM     OZ  392   1.209   2.426   1.565 -0.0000  0.0000 -0.0000
    1FRM     OZ  393   0.348   2.426   2.426 -0.0000 -0.0000  0.0000
    1FRM     OZ  394   0.348   1.209   1.209 -0.0000 -0.0000  0.0000
    1FRM     OZ  395   1.565   1.209   2.426 -0.0000 -0.0000  0.0000
    1FRM     OZ  396   1.565   2.426   1.209 -0.0000 -0.0000  0.0000
    1FRM     OZ  397   0.008   0.957   0.600 -0.0000 -0.0000 -0.0000
    1FRM     OZ  398   0.008   2.174   1.818  0.0000 -0.0000 -0.0000
    1FRM     OZ  399   1.226   2.174   0.600 -0.0000 -0.0000 -0.0000
    1FRM     OZ  400   1.226   0.957   1.818 -0.0000 -0.0000 -0.0000
    1FRM     OZ  401   0.008   0.600   0.957  0.0000  0.0000  0.0000
    1FRM     OZ  402   0.008   1.818   2.174  0.0000  0.0000 -0.0000
    1FRM     OZ  403   1.226   1.818   0.957  0.0000  0.0000 -0.0000
    1FRM     OZ  404   1.226   0.600   2.174  0.0000  0.0000 -0.0000
    1FRM     OZ  405   2.087   0.600   0.600  0.0000 -0.0000  0.0000
    1FRM     OZ  406   2.087   1.818   1.818  0.0000 -0.0000  0.0000
    1FRM     OZ  407   0.869   1.818   0.600  0.0000 -0.0000  0.0000
    1FRM     OZ  408   0.869   0.600   1.818  0.0000 -0.0000  0.0000
    1FRM     OZ  409   0.600   2.087   0.600  0.0000  0.0000 -0.0000
    1FRM     OZ  410   0.600   0.869   1.818  0.0000  0.0000 -0.0000
    1FRM     OZ  411   1.818   0.869   0.600  0.0000  0.0000 -0.0000
    1FRM     OZ  412   1.818   2.087   1.818  0.0000  0.0000 -0.0000
    1FRM     OZ  413   0.600   0.008   0.957  0.0000  0.0000  0.0000
    1FRM     OZ  414   0.600   1.226   2.174 -0.0000 -0.0000 -0.0000
    1FRM     OZ  415   1.818   1.226   0.957 -0.0000 -0.0000 -0.0000
    1FRM     OZ  416   1.818   0.008   2.174  0.0000  0.0000  0.0000
    1FRM     OZ  417   0.957   0.008   0.600 -0.0000  0.0000  0.0000
    1FRM     OZ  418   0.957   1.226   1.818 -0.0000  0.0000  0.0000
    1FRM     OZ  419   2.174   1.226   0.600 -0.0000  0.0000  0.0000
    1FRM     OZ  420   2.174   0.008   1.818 -0.0000  0.0000  0.0000
    1FRM     OZ  421   0.617   1.478   1.209 -0.0000  0.0000 -0.0000
    1FRM     OZ  422   0.617   0.261   2.426 -0.0000  0.0000 -0.0000
    1FRM     OZ  423   1.834   0.261   1.209 -0.0000 -0.0000 -0.0000
    1FRM     OZ  424   1.834   1.478   2.426 -0.0000  0.0000 -0.0000
    1FRM     OZ  425   0.617   1.834   1.565  0.0000 -0.0000  0.0000
    1FRM     OZ  426   0.617   0.617   0.348  0.0000 -0.0000  0.0000
    1FRM     OZ  427   1.834   0.617   1.565  0.0000 -0.0000  0.0000
    1FRM     OZ  428   1.834   1.834   0.348  0.0000 -0.0000  0.0000
    1FRM     OZ  429   0.261   1.834   1.209  0.0000  0.0000  0.0000
    1FRM     OZ  430   0.261   0.617   2.426  0.0000  0.0000  0.0000
    1FRM     OZ  431   1.478   0.617   1.209  0.0000  0.0000  0.0000
    1FRM     OZ  432   1.478   1.834   2.426  0.0000  0.0000  0.0000
    1FRM     OZ  433   0.008   2.087   0.008 -0.0000  0.0000  0.0000
    1FRM     OZ  434   0.008   0.869   1.226 -0.0000  0.0000  0.0000
    1FRM     OZ  435   1.226   0.869   0.008 -0.0000  0.0000  0.0000
    1FRM     OZ  436   1.226   2.087   1.226 -0.0000  0.0000  0.0000
    1FRM     OZ  437   0.008   0.008   2.087  0.0000 -0.0000  0.0000
    1FRM     OZ  438   0.008   1.226   0.869  0.0000 -0.0000  0.0000
    1FRM     OZ  439   1.226   1.226   2.087  0.0000 -0.0000  0.0000
    1FRM     OZ  440   1.226   0.008   0.869  0.0000 -0.0000  0.0000
    1FRM     OZ  441   2.087   0.008   0.008  0.0000  0.0000 -0.0000
    1FRM     OZ  442   2.087   1.226   1.226  0.0000  0.0000 -0.0000
    1FRM     OZ  443   0.869   1.226   0.008  0.0000  0.0000 -0.0000
    1FRM     OZ  444   0.869   0.008   1.226  0.0000  0.0000 -0.0000
    1FRM     OZ  445   2.426   1.478   1.834  0.0000  0.0000  0.0000
    1FRM     OZ  446   2.426   0.261   0.617  0.0000  0.0000  0.0000
    1FRM     OZ  447   1.209   0.261   1.834  0.0000  0.0000  0.0000
    1FRM     OZ  448   1.209   1.478   0.617  0.0000  0.0000  0.0000
    1FRM     OZ  449   2.426   1.834   1.478 -0.0000 -0.0000  0.0000
    1FRM     OZ  450   2.426   0.617   0.261 -0.0000 -0.0000  0.0000
    1FRM     OZ  451   1.209   0.617   1.478 -0.0000 -0.0000  0.0000
    1FRM     OZ  452   1.209   1.834   0.261 -0.0000 -0.0000  0.0000
    1FRM     OZ  453   0.348   1.834   1.834  0.0000  0.0000 -0.0000
    1FRM     OZ  454   0.348   0.617   0.617  0.0000  0.0000 -0.0000
    1FRM     OZ  455   1.565   0.617   1.834  0.0000  0.0000 -0.0000
    1FRM     OZ  456   1.565   1.834   0.617  0.0000  0.0000 -0.0000
    1FRM     OZ  457   1.834   0.348   1.834 -0.0000  0.0000  0.0000
    1FRM     OZ  458   1.834   1.565   0.617 -0.0000  0.0000  0.0000
    1FRM     OZ  459   0.617   1.565   1.834 -0.0000  0.0000  0.0000
    1FRM     OZ  460   0.617   0.348   0.617 -0.0000  0.0000  0.0000
    1FRM     OZ  461   1.834   2.426   1.478  0.0000  0.0000 -0.0000
    1FRM     OZ  462   1.834   1.209   0.261  0.0000  0.0000  0.0000
    1FRM     OZ  463   0.617   1.209   1.478  0.0000  0.0000  0.0000
    1FRM     OZ  464   0.617   2.426   0.261  0.0000  0.0000  0.0000
    1FRM     OZ  465   1.478   2.426   1.834  0.0000 -0.0000 -0.0000
    1FRM     OZ  466   1.478   1.209   0.617  0.0000 -0.0000 -0.0000
    1FRM     OZ  467   0.261   1.209   1.834  0.0000 -0.0000 -0.0000
    1FRM     OZ  468   0.261   2.426   0.617  0.0000 -0.0000 -0.0000
    1FRM     OZ  469   1.818   0.957   1.226  0.0000  0.0000  0.0000
    1FRM     OZ  470   1.818   2.174   0.008  0.0000  0.0000  0.0000
    1FRM     OZ  471   0.600   2.174   1.226  0.0000  0.0000  0.0000
    1FRM     OZ  472   0.600   0.957   0.008  0.0000 -0.0000  0.0000
    1FRM     OZ  473   1.818   0.600   0.869 -0.0000  0.0000  0.0000
    1FRM     OZ  474   1.818   1.818   2.087 -0.0000  0.0000  0.0000
    1FRM     OZ  475   0.600   1.818   0.869 -0.0000  0.0000  0.0000
    1FRM     OZ  476   0.600   0.600   2.087 -0.0000  0.0000  0.0000
    1FRM     OZ  477   2.174   0.600   1.226  0.0000 -0.0000 -0.0000
    1FRM     OZ  478   2.174   1.818   0.008  0.0000  0.0000  0.0000
    1FRM     OZ  479   0.957   1.818   1.226 -0.0000  0.0000  0.0000
    1FRM     OZ  480   0.957   0.600   0.008 -0.0000 -0.0000  0.0000
    1FRM     OZ  481   2.260   0.431   0.178  0.0000  0.0000  0.0000
    1FRM     OZ  482   2.260   1.648   1.395  0.0000  0.0000  0.0000
    1FRM     OZ  483   1.043   1.648   0.178  0.0000  0.0000  0.0000
    1FRM     OZ  484   1.043   0.431   1.395  0.0000  0.0000  0.0000
    1FRM     OZ  485   0.178   2.260   0.431  0.0000  0.0000  0.0000
    1FRM     OZ  486   0.178   1.043   1.648  0.0000  0.0000  0.0000
    1FRM     OZ  487   1.395   1.043   0.431  0.0000  0.0000  0.0000
    1FRM     OZ  488   1.395   2.260   1.648  0.0000  0.0000  0.0000
    1FRM     OZ  489   0.431   0.178   2.260  0.0000  0.0000  0.0000
    1FRM     OZ  490   0.431   1.395   1.043  0.0000  0.0000  0.0000
    1FRM     OZ  491   1.648   1.395   2.260  0.0000  0.0000  0.0000
    1FRM     OZ  492   1.648   0.178   1.043  0.0000  0.0000  0.0000
    1FRM     OZ  493   0.175   1.040   0.786  0.0000  0.0000  0.0000
    1FRM     OZ  494   0.175   2.257   2.004  0.0000  0.0000  0.0000
    1FRM     OZ  495   1.392   2.257   0.786  0.0000  0.0000  0.0000
    1FRM     OZ  496   1.392   1.040   2.004  0.0000  0.0000  0.0000
    1FRM     OZ  497   2.257   0.434   1.040 -0.0000  0.0000  0.0000
    1FRM     OZ  498   2.257   1.651   2.257 -0.0000  0.0000  0.0000
    1FRM     OZ  499   1.040   1.651   1.040 -0.0000  0.0000  0.0000
    1FRM     OZ  500   1.040   0.434   2.257 -0.0000  0.0000  0.0000
    1FRM     OZ  501   2.004   0.786   0.434 -0.0000  0.0000  0.0000
    1FRM     OZ  502   2.004   2.004   1.651 -0.0000  0.0000  0.0000
    1FRM     OZ  503   0.786   2.004   0.434 -0.0000  0.0000  0.0000
    1FRM     OZ  504   0.786   0.786   1.651 -0.0000  0.0000  0.0000
    1FRM     OZ  505   0.434   2.004   0.786  0.0000 -0.0000  0.0000
    1FRM     OZ  506   0.434   0.786   2.004  0.0000 -0.0000  0.0000
    1FRM     OZ  507   1.651   0.786   0.786  0.0000 -0.0000  0.0000
    1FRM     OZ  508   1.651   2.004   2.004  0.0000 -0.0000  0.0000
    1FRM     OZ  509   0.786   0.175   1.040 -0.0000 -0.0000 -0.0000
    1FRM     OZ  510   0.786   1.392   2.257  0.0000  0.0000  0.0000
    1FRM     OZ  511   2.004   1.392   1.040  0.0000 -0.0000  0.0000
    1FRM     OZ  512   2.004   0.175   2.257 -0.0000 -0.0000 -0.0000
    1FRM     OZ  513   1.040   2.257   0.434  0.0000 -0.0000  0.0000
    1FRM     OZ  514   1.040   1.040   1.651  0.0000 -0.0000  0.0000
    1FRM     OZ  515   2.257   1.040   0.434  0.0000 -0.0000  0.0000
    1FRM     OZ  516   2.257   2.257   1.651  0.0000 -0.0000  0.0000
    1FRM     OZ  517   0.783   1.395   1.395 -0.0000 -0.0000  0.0000
    1FRM     OZ  518   0.783   0.178   0.178 -0.0000 -0.0000  0.0000
    1FRM     OZ  519   2.000   0.178   1.395 -0.0000 -0.0000  0.0000
    1FRM     OZ  520   2.000   1.395   0.178 -0.0000 -0.0000  0.0000
    1FRM     OZ  521   0.431   2.000   1.648 -0.0000 -0.0000  0.0000
    1FRM     OZ  522   0.431   0.783   0.431 -0.0000 -0.0000  0.0000
    1FRM     OZ  523   1.648   0.783   1.648 -0.0000 -0.0000  0.0000
    1FRM     OZ  524   1.648   2.000   0.431 -0.0000 -0.0000  0.0000
    1FRM     OZ  525   0.178   1.648   1.043 -0.0000 -0.0000  0.0000
    1FRM     OZ  526   0.178   0.431   2.260 -0.0000 -0.0000  0.0000
    1FRM     OZ  527   1.395   0.431   1.043 -0.0000 -0.0000  0.0000
    1FRM     OZ  528   1.395   1.648   2.260 -0.0000 -0.0000  0.0000
    1FRM     OZ  529   0.431   2.260   0.178 -0.0000  0.0000 -0.0000
    1FRM     OZ  530   0.431   1.043   1.395 -0.0000  0.0000 -0.0000
    1FRM     OZ  531   1.648   1.043   0.178 -0.0000  0.0000 -0.0000
    1FRM     OZ  532   1.648   2.260   1.395 -0.0000  0.0000 -0.0000
    1FRM     OZ  533   2.260   0.178   0.431  0.0000 -0.0000 -0.0000
    1FRM     OZ  534   2.260   1.395   1.648  0.0000 -0.0000 -0.0000
    1FRM     OZ  535   1.043   1.395   0.431  0.0000 -0.0000 -0.0000
    1FRM     OZ  536   1.043   0.178   1.648  0.0000 -0.0000 -0.0000
    1FRM     OZ  537   1.040   0.175   0.786 -0.0000  0.0000 -0.0000
    1FRM     OZ  538   1.040   1.392   2.004 -0.0000 -0.0000 -0.0000
    1FRM     OZ  539   2.257   1.392   0.786 -0.0000 -0.0000 -0.0000
    1FRM     OZ  540   2.257   0.175   2.004 -0.0000  0.0000  0.0000
    1FRM     OZ  541   0.434   2.257   1.040  0.0000  0.0000 -0.0000
    1FRM     OZ  542   0.434   1.040   2.257  0.0000  0.0000 -0.0000
    1FRM     OZ  543   1.651   1.040   1.040  0.0000  0.0000 -0.0000
    1FRM     OZ  544   1.651   2.257   2.257  0.0000  0.0000 -0.0000
    1FRM     OZ  545   2.004   0.434   0.786  0.0000  0.0000 -0.0000
    1FRM     OZ  546   2.004   1.651   2.004  0.0000  0.0000 -0.0000
    1FRM     OZ  547   0.786   1.651   0.786  0.0000  0.0000 -0.0000
    1FRM     OZ  548   0.786   0.434   2.004  0.0000  0.0000 -0.0000
    1FRM     OZ  549   0.175   0.786   1.040  0.0000 -0.0000 -0.0000
    1FRM     OZ  550   0.175   2.004   2.257 -0.0000 -0.0000 -0.0000
    1FRM     OZ  551   1.392   2.004   1.040 -0.0000 -0.0000 -0.0000
    1FRM     OZ  552   1.392   0.786   2.257 -0.0000 -0.0000 -0.0000
    1FRM     OZ  553   1.395   0.783   1.395  0.0000 -0.0000 -0.0000
    1FRM     OZ  554   1.395   2.000   0.178  0.0000 -0.0000 -0.0000
    1FRM     OZ  555   0.178   2.000   1.395  0.0000 -0.0000 -0.0000
    1FRM     OZ  556   0.178   0.783   0.178  0.0000 -0.0000 -0.0000
    1FRM     OZ  557   2.000   0.431   1.648 -0.0000  0.0000 -0.0000
    1FRM     OZ  558   2.000   1.648   0.431 -0.0000  0.0000 -0.0000
    1FRM     OZ  559   0.783   1.648   1.648 -0.0000  0.0000 -0.0000
    1FRM     OZ  560   0.783   0.431   0.431 -0.0000  0.0000 -0.0000
    1FRM     OZ  561   2.004   2.257   0.175 -0.0000 -0.0000  0.0000
    1FRM     OZ  562   2.004   1.040   1.392 -0.0000  0.0000  0.0000
    1FRM     OZ  563   0.786   1.040   0.175  0.0000 -0.0000 -0.0000
    1FRM     OZ  564   0.786   2.257   1.392 -0.0000 -0.0000  0.0000
    1FRM     OZ  565   0.431   1.648   2.000  0.0000 -0.0000 -0.0000
    1FRM     OZ  566   0.431   0.431   0.783  0.0000 -0.0000 -0.0000
    1FRM     OZ  567   1.648   0.431   2.000  0.0000 -0.0000 -0.0000
    1FRM     OZ  568   1.648   1.648   0.783  0.0000 -0.0000 -0.0000
    1FRM     OZ  569   1.395   0.178   2.000 -0.0000  0.0000 -0.0000
    1FRM     OZ  570   1.395   1.395   0.783 -0.0000  0.0000 -0.0000
    1FRM     OZ  571   0.178   1.395   2.000 -0.0000  0.0000 -0.0000
    1FRM     OZ  572   0.178   0.178   0.783 -0.0000  0.0000 -0.0000
    1FRM     OZ  573   2.257   0.786   1.392  0.0000  0.0000  0.0000
    1FRM     OZ  574   2.257   2.004   0.175 -0.0000 -0.0000 -0.0000
    1FRM     OZ  575   1.040   2.004   1.392 -0.0000 -0.0000 -0.0000
    1FRM     OZ  576   1.040   0.786   0.175  0.0000  0.0000  0.0000
    1FRM     FE  577   2.324   1.107   1.328 -0.0000 -0.0000 -0.0000
    1FRM     FE  578   0.498   1.715   1.715  0.0000  0.0000  0.0000
    1FRM     FE  579   2.324   0.111   2.324 -0.0000 -0.0000 -0.0000
    1FRM     FE  580   0.498   0.498   0.498  0.0000  0.0000  0.0000
    1FRM     FE  581   1.107   2.324   1.328 -0.0000 -0.0000 -0.0000
    1FRM     FE  582   1.715   0.498   1.715 -0.0000  0.0000 -0.0000
    1FRM     FE  583   1.107   1.107   0.111 -0.0000 -0.0000 -0.0000
    1FRM     FE  584   1.715   1.715   0.498  0.0000  0.0000 -0.0000
    1FRM     FE  585   1.663   0.833   2.349 -0.0000  0.0000  0.0000
    1FRM     FE  586   1.911   1.054   1.441  0.0000  0.0000 -0.0000
    1FRM     FE  587   1.741   0.163   1.441  0.0000 -0.0000 -0.0000
    1FRM     FE  588   1.911   0.163   2.211  0.0000  0.0000  0.0000
    1FRM     FE  589   0.224   0.694   1.054 -0.0000  0.0000  0.0000
    1FRM     FE  590   0.993   0.523   1.054  0.0000  0.0000  0.0000
    1FRM     FE  591   1.663   2.050   1.132 -0.0000  0.0000  0.0000
    1FRM     FE  592   1.911   2.271   0.224  0.0000  0.0000 -0.0000
    1FRM     FE  593   1.302   0.772   2.050 -0.0000  0.0000 -0.0000
    1FRM     FE  594   0.385   1.132   0.772 -0.0000  0.0000  0.0000
    1FRM     FE  595   1.302   1.663   0.385 -0.0000  0.0000  0.0000
    1FRM     FE  596   1.132   1.663   2.050  0.0000 -0.0000  0.0000
    1FRM     FE  597   1.132   0.772   0.385  0.0000 -0.0000 -0.0000
    1FRM     FE  598   2.050   1.302   0.772 -0.0000 -0.0000  0.0000
    1FRM     FE  599   0.385   1.302   1.663  0.0000 -0.0000  0.0000
    1FRM     FE  600   0.385   0.085   0.446  0.0000 -0.0000  0.0000
    1FRM     FE  601   0.772   1.602   2.349  0.0000 -0.0000  0.0000
    1FRM     FE  602   1.302   1.989   0.833 -0.0000  0.0000 -0.0000
    1FRM     FE  603   0.385   2.349   1.989 -0.0000  0.0000  0.0000
    1FRM     FE  604   0.833   1.302   1.989 -0.0000 -0.0000  0.0000
    1FRM     FE  605   1.602   1.302   0.446  0.0000 -0.0000  0.0000
    1FRM     FE  606   0.833   1.132   0.446 -0.0000  0.0000 -0.0000
    1FRM     FE  607   0.446   0.385   0.085  0.0000  0.0000 -0.0000
    1FRM     FE  608   0.446   2.050   2.349 -0.0000  0.0000  0.0000
    1FRM     FE  609   0.694   2.271   1.441  0.0000  0.0000 -0.0000
    1FRM     FE  610   2.211   1.741   1.054  0.0000 -0.0000  0.0000
    1FRM     FE  611   2.211   1.911   0.163  0.0000  0.0000  0.0000
    1FRM     FE  612   1.054   0.224   0.694  0.0000 -0.0000  0.0000
    1FRM     FE  613   0.085   0.446   0.385 -0.0000  0.0000  0.0000
    1FRM     FE  614   2.349   0.446   2.050  0.0000 -0.0000  0.0000
    1FRM     FE  615   0.085   1.989   2.050 -0.0000  0.0000 -0.0000
    1FRM     FE  616   1.602   2.349   0.772 -0.0000  0.0000  0.0000
    1FRM     FE  617   1.602   1.132   1.989 -0.0000  0.0000 -0.0000
    1FRM     FE  618   2.349   0.772   1.602 -0.0000 -0.0000 -0.0000
    1FRM     FE  619   0.085   1.663   1.602 -0.0000  0.0000  0.0000
    1FRM     FE  620   2.271   2.211   0.523  0.0000  0.0000  0.0000
    1FRM     FE  621   0.446   1.602   1.302  0.0000  0.0000 -0.0000
    1FRM     FE  622   0.694   0.163   0.993  0.0000  0.0000  0.0000
    1FRM     FE  623   0.993   1.911   1.380  0.0000  0.0000  0.0000
    1FRM     FE  624   0.772   0.833   0.085  0.0000 -0.0000 -0.0000
    2CO2      C  625   1.876   1.808   1.024 -0.5600  0.1176  0.5429
    2CO2      O  626   1.983   1.758   1.018 -0.3353  0.1674  0.0176
    2CO2      O  627   1.781   1.869   1.045  0.6907 -0.4573 -0.1173
    3CO2      C  628   1.116   1.769   1.716  0.7836  0.8886  0.8846
    3CO2      O  629   1.130   1.794   1.606 -0.2897 -0.2059 -0.4593
    3CO2      O  630   1.105   1.735   1.829 -0.2487 -0.4958 -0.2208
    4CO2      C  631   2.049   0.584   2.186 -0.4393  0.0333 -0.9561
    4CO2      O  632   1.947   0.631   2.205  0.2057  0.0525  0.2437
    4CO2      O  633   2.152   0.539   2.174  0.0253 -0.0132  0.0699
    5CO2      C  634   0.689   1.415   0.217 -0.3645 -0.5390 -0.1207
    5CO2      O  635   0.698   1.340   0.301  0.0828  0.2941  0.0441
    5CO2      O  636   0.688   1.488   0.126  0.0312  0.1842  0.1439
    6CO2      C  637   2.433   2.323   0.824  0.2700  1.1663  0.7077
    6CO2      O  638   2.474   2.357   0.928  0.0881 -0.3244 -0.2634
    6CO2      O  639   2.384   2.294   0.716 -0.2990 -0.5781 -0.4157
    7CO2      C  640   1.418   1.435   1.909 -0.1570 -0.9965  0.3445
    7CO2      O  641   1.495   1.352   1.911 -0.0130  0.9433  0.0508
    7CO2      O  642   1.339   1.513   1.908  0.1026 -0.0541 -0.2400
    8CO2      C  643   1.446   0.694   0.180  0.6982  1.1192  0.2784
    8CO2      O  644   1.350   0.689   0.251 -0.5704 -0.4849  0.1115
    8CO2      O  645   1.539   0.694   0.113  0.0818 -0.4092 -0.3380
    9CO2      C  646   0.235   1.886   0.136  0.5640 -0.5306  0.8598
    9CO2      O  647   0.146   1.881   0.210 -0.5407  0.1486 -0.2118
    9CO2      O  648   0.329   1.896   0.070  0.1941  0.3119 -0.3958
   10CO2      C  649   0.471   2.383   1.658 -0.1202  0.1250 -0.0357
   10CO2      O  650   0.424   2.384   1.767  0.0277 -0.0009  0.0679
   10CO2      O  651   0.518   2.373   1.557  0.0935 -0.0372 -0.0746
   11CO2      C  652   1.108   0.813   1.215 -0.4847  0.1434  0.4248
   11CO2      O  653   1.141   0.915   1.261  0.2074  0.0571 -0.1223
   11CO2      O  654   1.069   0.720   1.166  0.2174 -0.0088 -0.1848
   12CO2      C  655   0.935   1.289   0.747  0.5609 -0.6053 -0.4350
   12CO2      O  656   0.974   1.344   0.832 -0.0004  0.5385  0.6088
   12CO2      O  657   0.898   1.229   0.656 -0.3651 -0.0815 -0.2454
   13CO2      C  658   0.200   1.422   0.673 -0.1320 -0.0133 -0.1235
   13CO2      O  659   0.282   1.327   0.682  0.2999 -0.2503  0.0851
   13CO2      O  660   0.123   1.500   0.652 -0.1820  0.3309  0.0366
   14CO2      C  661   0.150   0.638   1.388 -0.0982 -0.1224  1.2663
   14CO2      O  662   0.086   0.655   1.474  0.4062 -0.1031 -0.9258
   14CO2      O  663   0.203   0.616   1.288 -0.2021  0.0872  0.0124
   15CO2      C  664   1.394   0.161   0.652 -0.7152 -0.0447 -0.6905
   15CO2      O  665   1.299   0.226   0.640  0.1548  0.1388  0.2190
   15CO2      O  666   1.481   0.090   0.661  0.4378 -0.0871  0.2488
   16CO2      C  667   1.764   0.099   0.082  0.2488  0.2356 -0.0631
   16CO2      O  668   1.758   0.171  -0.004 -0.1153 -0.0396 -0.0876
   16CO2      O  669   1.765   0.017   0.165 -0.1085 -0.1115  0.1228
   2.43450   2.43450   2.43450
